default_name
 41846
  90.5310000  66.7990000  68.5660000  91.9807774  73.9002005  69.9921438
  90.4716515  73.8147848  69.9052115  89.9119757  72.9116163  70.9962000
  88.4132477  72.8560210  70.8293451  87.7941405  71.9892373  71.9023042
  86.2878159  72.1211808  71.8277451  85.6700844  71.3200000  70.6790000
  84.1240000  71.3200000  70.6790000  83.5166962  72.7467263  70.6790000
  84.0145752  73.6732788  69.5664628  83.4598467  75.0867891  69.7890727
  83.9673630  76.0502987  68.7210697  83.4154346  77.4614171  68.9418251
  83.9239851  78.4016350  67.8466481  83.3772930  79.8167717  68.0237523
  83.8898686  80.7341607  66.9258111  83.6005855  70.6701111  72.0260708
  83.9194433  71.4880878  73.2704143  83.3773105  70.8484234  74.5448002
  83.8053195  71.7123543  75.7249314  83.2890424  71.1910436  77.0595243
  83.7769725  72.1048104  78.1832741  83.2875096  71.6260682  79.5404484
  83.7753658  72.5370515  80.6543876  83.5691881  70.4493906  69.5126574
  83.9227005  68.9635280  69.4024780  83.5289988  68.0288091  70.5509995
  82.0209550  68.0441187  70.8059279  81.3464239  67.3942166  69.6154070
  79.8380011  67.4649084  69.6240254  79.3578934  66.7693069  68.3525471
  77.8498128  66.7660083  68.2604068  90.0690000  67.0670000  67.6110000
  89.9920455  66.6963397  67.6186543  89.9095611  66.3644972  69.3585043
  92.2759754  74.3016320  70.9678291  92.4161727  72.8982427  69.9024485
  90.1689720  73.4276836  68.9250912  90.0298237  74.8144455  70.0048742
  90.1752239  73.3048512  71.9832884  90.3404698  71.9027144  70.9169043
  88.1563187  72.4707845  69.8425598  87.9998951  73.8740287  70.9003450
  88.1282658  72.3272563  72.8885970  88.1083866  70.9437500  71.7985358
  85.9987068  73.1769578  71.7825596  85.9756052  71.7793389  72.7948530
  85.9903425  70.2769625  70.7283618  85.9843881  71.7224737  69.7112644
  83.7632357  73.2156140  71.6214736  82.4283203  72.6326983  70.6252458
  83.6940002  73.3207926  68.5804638  85.1077742  73.7295951  69.5579587
  83.7639731  75.4465757  70.7801851  82.3635120  75.0572478  69.7766420
  83.6729548  75.6887877  67.7312164  85.0635354  76.0807619  68.7455471
  83.7210479  77.8301915  69.9155016  82.3187292  77.4367877  68.9262742
  83.6275892  78.0148654  66.8653420  85.0200986  78.4262493  67.8683350
  83.6777766  80.2157647  68.9997785  82.2820217  79.8003078  68.0003739
  84.9829208  80.7974951  66.9463196  83.4870697  81.7428999  67.0543585
  83.5868333  80.3698719  65.9383785  84.0550542  69.6789619  72.1071353
  82.5126585  70.5595741  71.9167896  83.4656181  72.4800562  73.2141875
  85.0008946  71.6187973  73.3662741  83.7627371  69.8260534  74.6580741
  82.2824861  70.7840040  74.4975077  83.4425386  72.7373520  75.5754737
  84.9015863  71.7634758  75.7551920  83.6506747  70.1668178  77.2258961
  82.1959449  71.1591222  77.0498868  83.4221846  73.1282743  78.0046315
  84.8724191  72.1408192  78.1801142  83.6417464  70.6051405  79.7281609
  82.1900941  71.5943802  79.5546289  84.8703061  72.5696533  80.6811465
  83.4219240  72.1762630  81.6252081  83.4057896  73.5584462  80.5145654
  83.9820187  70.8802503  68.5963470  82.4839227  70.6012412  69.4959759
  84.9607693  68.8169570  69.1002213  83.4350395  68.6109919  68.4878611
  84.0940450  68.2217473  71.4658266  83.8317210  67.0061249  70.2824306
  81.6465027  69.0674619  70.9509115  81.7898803  67.4986479  71.7274420
  81.6763367  66.3491193  69.5597990  81.6659557  67.8727440  68.6877341
  79.5132828  68.5150482  69.6263644  79.4344417  66.9859961  70.5187258
  79.7291578  65.7376438  68.3353392  79.7747044  67.2701868  67.4697975
  77.4158940  66.2681213  69.1315217  77.5351443  66.2340585  67.3595860
  77.4681053  67.7903538  68.2123583  92.0000000  64.0000000  63.0000000
  81.5850000  75.9640000  72.2970000  87.8528435  78.4672258  73.2358018
  86.3236208  78.4763423  73.2358476  85.7589748  77.0543454  73.2349514
  84.2307844  77.0609019  73.2343803  83.6592430  75.6610000  73.2340000
  82.3050000  75.6610000  73.2340000  84.3094269  74.6287992  73.2334242
  81.3980000  76.5650000  70.4390000  81.0269627  76.5646082  71.5724083
  81.0239482  75.9486945  73.2364991  88.2220424  77.9328952  74.1192020
  88.2227372  77.9319623  72.3542715  85.9602267  79.0159011  72.3534328
  85.9591634  79.0159044  74.1183625  86.1251151  76.5104740  74.1139224
  86.1250361  76.5119952  72.3537225  83.8635586  77.5793983  72.3421832
  83.8637875  77.5788719  74.1276810  81.9127631  76.5543881  73.2340000
  90.5310000  66.7990000  86.5410000  91.9807774  73.9002005  87.9671438
  90.4716515  73.8147848  87.8802115  89.9119757  72.9116163  88.9712000
  88.4132477  72.8560210  88.8043451  87.7941405  71.9892373  89.8773042
  86.2878159  72.1211808  89.8027451  85.6700844  71.3200000  88.6540000
  84.1240000  71.3200000  88.6540000  83.5166962  72.7467263  88.6540000
  84.0145752  73.6732788  87.5414628  83.4598467  75.0867891  87.7640727
  83.9673630  76.0502987  86.6960697  83.4154346  77.4614171  86.9168251
  83.9239851  78.4016350  85.8216481  83.3772930  79.8167717  85.9987523
  83.8898686  80.7341607  84.9008111  83.6005855  70.6701111  90.0010708
  83.9194433  71.4880878  91.2454143  83.3773105  70.8484234  92.5198002
  83.8053195  71.7123543  93.6999314  83.2890424  71.1910436  95.0345243
  83.7769725  72.1048104  96.1582741  83.2875096  71.6260682  97.5154484
  83.7753658  72.5370515  98.6293876  83.5691881  70.4493906  87.4876574
  83.9227005  68.9635280  87.3774780  83.5289988  68.0288091  88.5259995
  82.0209550  68.0441187  88.7809279  81.3464239  67.3942166  87.5904070
  79.8380011  67.4649084  87.5990254  79.3578934  66.7693069  86.3275471
  77.8498128  66.7660083  86.2354068  90.0690000  67.0670000  85.5860000
  89.9920455  66.6963397  85.5936543  89.9095611  66.3644972  87.3335043
  92.2759754  74.3016320  88.9428291  92.4161727  72.8982427  87.8774485
  90.1689720  73.4276836  86.9000912  90.0298237  74.8144455  87.9798742
  90.1752239  73.3048512  89.9582884  90.3404698  71.9027144  88.8919043
  88.1563187  72.4707845  87.8175598  87.9998951  73.8740287  88.8753450
  88.1282658  72.3272563  90.8635970  88.1083866  70.9437500  89.7735358
  85.9987068  73.1769578  89.7575596  85.9756052  71.7793389  90.7698530
  85.9903425  70.2769625  88.7033618  85.9843881  71.7224737  87.6862644
  83.7632357  73.2156140  89.5964736  82.4283203  72.6326983  88.6002458
  83.6940002  73.3207926  86.5554638  85.1077742  73.7295951  87.5329587
  83.7639731  75.4465757  88.7551851  82.3635120  75.0572478  87.7516420
  83.6729548  75.6887877  85.7062164  85.0635354  76.0807619  86.7205471
  83.7210479  77.8301915  87.8905016  82.3187292  77.4367877  86.9012742
  83.6275892  78.0148654  84.8403420  85.0200986  78.4262493  85.8433350
  83.6777766  80.2157647  86.9747785  82.2820217  79.8003078  85.9753739
  84.9829208  80.7974951  84.9213196  83.4870697  81.7428999  85.0293585
  83.5868333  80.3698719  83.9133785  84.0550542  69.6789619  90.0821353
  82.5126585  70.5595741  89.8917896  83.4656181  72.4800562  91.1891875
  85.0008946  71.6187973  91.3412741  83.7627371  69.8260534  92.6330741
  82.2824861  70.7840040  92.4725077  83.4425386  72.7373520  93.5504737
  84.9015863  71.7634758  93.7301920  83.6506747  70.1668178  95.2008961
  82.1959449  71.1591222  95.0248868  83.4221846  73.1282743  95.9796315
  84.8724191  72.1408192  96.1551142  83.6417464  70.6051405  97.7031609
  82.1900941  71.5943802  97.5296289  84.8703061  72.5696533  98.6561465
  83.4219240  72.1762630  99.6002081  83.4057896  73.5584462  98.4895654
  83.9820187  70.8802503  86.5713470  82.4839227  70.6012412  87.4709759
  84.9607693  68.8169570  87.0752213  83.4350395  68.6109919  86.4628611
  84.0940450  68.2217473  89.4408266  83.8317210  67.0061249  88.2574306
  81.6465027  69.0674619  88.9259115  81.7898803  67.4986479  89.7024420
  81.6763367  66.3491193  87.5347990  81.6659557  67.8727440  86.6627341
  79.5132828  68.5150482  87.6013644  79.4344417  66.9859961  88.4937258
  79.7291578  65.7376438  86.3103392  79.7747044  67.2701868  85.4447975
  77.4158940  66.2681213  87.1065217  77.5351443  66.2340585  85.3345860
  77.4681053  67.7903538  86.1873583  92.0000000  64.0000000  80.9750000
  81.5850000  75.9640000  90.2720000  87.8528435  78.4672258  91.2108018
  86.3236208  78.4763423  91.2108476  85.7589748  77.0543454  91.2099514
  84.2307844  77.0609019  91.2093803  83.6592430  75.6610000  91.2090000
  82.3050000  75.6610000  91.2090000  84.3094269  74.6287992  91.2084242
  81.3980000  76.5650000  88.4140000  81.0269627  76.5646082  89.5474083
  81.0239482  75.9486945  91.2114991  88.2220424  77.9328952  92.0942020
  88.2227372  77.9319623  90.3292715  85.9602267  79.0159011  90.3284328
  85.9591634  79.0159044  92.0933625  86.1251151  76.5104740  92.0889224
  86.1250361  76.5119952  90.3287225  83.8635586  77.5793983  90.3171832
  83.8637875  77.5788719  92.1026810  81.9127631  76.5543881  91.2090000
  90.5310000  66.7990000 104.5160000  91.9807774  73.9002005 105.9421438
  90.4716515  73.8147848 105.8552115  89.9119757  72.9116163 106.9462000
  88.4132477  72.8560210 106.7793451  87.7941405  71.9892373 107.8523042
  86.2878159  72.1211808 107.7777451  85.6700844  71.3200000 106.6290000
  84.1240000  71.3200000 106.6290000  83.5166962  72.7467263 106.6290000
  84.0145752  73.6732788 105.5164628  83.4598467  75.0867891 105.7390727
  83.9673630  76.0502987 104.6710697  83.4154346  77.4614171 104.8918251
  83.9239851  78.4016350 103.7966481  83.3772930  79.8167717 103.9737523
  83.8898686  80.7341607 102.8758111  83.6005855  70.6701111 107.9760708
  83.9194433  71.4880878 109.2204143  83.3773105  70.8484234 110.4948002
  83.8053195  71.7123543 111.6749314  83.2890424  71.1910436 113.0095243
  83.7769725  72.1048104 114.1332741  83.2875096  71.6260682 115.4904484
  83.7753658  72.5370515 116.6043876  83.5691881  70.4493906 105.4626574
  83.9227005  68.9635280 105.3524780  83.5289988  68.0288091 106.5009995
  82.0209550  68.0441187 106.7559279  81.3464239  67.3942166 105.5654070
  79.8380011  67.4649084 105.5740254  79.3578934  66.7693069 104.3025471
  77.8498128  66.7660083 104.2104068  90.0690000  67.0670000 103.5610000
  89.9920455  66.6963397 103.5686543  89.9095611  66.3644972 105.3085043
  92.2759754  74.3016320 106.9178291  92.4161727  72.8982427 105.8524485
  90.1689720  73.4276836 104.8750912  90.0298237  74.8144455 105.9548742
  90.1752239  73.3048512 107.9332884  90.3404698  71.9027144 106.8669043
  88.1563187  72.4707845 105.7925598  87.9998951  73.8740287 106.8503450
  88.1282658  72.3272563 108.8385970  88.1083866  70.9437500 107.7485358
  85.9987068  73.1769578 107.7325596  85.9756052  71.7793389 108.7448530
  85.9903425  70.2769625 106.6783618  85.9843881  71.7224737 105.6612644
  83.7632357  73.2156140 107.5714736  82.4283203  72.6326983 106.5752458
  83.6940002  73.3207926 104.5304638  85.1077742  73.7295951 105.5079587
  83.7639731  75.4465757 106.7301851  82.3635120  75.0572478 105.7266420
  83.6729548  75.6887877 103.6812164  85.0635354  76.0807619 104.6955471
  83.7210479  77.8301915 105.8655016  82.3187292  77.4367877 104.8762742
  83.6275892  78.0148654 102.8153420  85.0200986  78.4262493 103.8183350
  83.6777766  80.2157647 104.9497785  82.2820217  79.8003078 103.9503739
  84.9829208  80.7974951 102.8963196  83.4870697  81.7428999 103.0043585
  83.5868333  80.3698719 101.8883785  84.0550542  69.6789619 108.0571353
  82.5126585  70.5595741 107.8667896  83.4656181  72.4800562 109.1641875
  85.0008946  71.6187973 109.3162741  83.7627371  69.8260534 110.6080741
  82.2824861  70.7840040 110.4475077  83.4425386  72.7373520 111.5254737
  84.9015863  71.7634758 111.7051920  83.6506747  70.1668178 113.1758961
  82.1959449  71.1591222 112.9998868  83.4221846  73.1282743 113.9546315
  84.8724191  72.1408192 114.1301142  83.6417464  70.6051405 115.6781609
  82.1900941  71.5943802 115.5046289  84.8703061  72.5696533 116.6311465
  83.4219240  72.1762630 117.5752081  83.4057896  73.5584462 116.4645654
  83.9820187  70.8802503 104.5463470  82.4839227  70.6012412 105.4459759
  84.9607693  68.8169570 105.0502213  83.4350395  68.6109919 104.4378611
  84.0940450  68.2217473 107.4158266  83.8317210  67.0061249 106.2324306
  81.6465027  69.0674619 106.9009115  81.7898803  67.4986479 107.6774420
  81.6763367  66.3491193 105.5097990  81.6659557  67.8727440 104.6377341
  79.5132828  68.5150482 105.5763644  79.4344417  66.9859961 106.4687258
  79.7291578  65.7376438 104.2853392  79.7747044  67.2701868 103.4197975
  77.4158940  66.2681213 105.0815217  77.5351443  66.2340585 103.3095860
  77.4681053  67.7903538 104.1623583  92.0000000  64.0000000  98.9500000
  81.5850000  75.9640000 108.2470000  87.8528435  78.4672258 109.1858018
  86.3236208  78.4763423 109.1858476  85.7589748  77.0543454 109.1849514
  84.2307844  77.0609019 109.1843803  83.6592430  75.6610000 109.1840000
  82.3050000  75.6610000 109.1840000  84.3094269  74.6287992 109.1834242
  81.3980000  76.5650000 106.3890000  81.0269627  76.5646082 107.5224083
  81.0239482  75.9486945 109.1864991  88.2220424  77.9328952 110.0692020
  88.2227372  77.9319623 108.3042715  85.9602267  79.0159011 108.3034328
  85.9591634  79.0159044 110.0683625  86.1251151  76.5104740 110.0639224
  86.1250361  76.5119952 108.3037225  83.8635586  77.5793983 108.2921832
  83.8637875  77.5788719 110.0776810  81.9127631  76.5543881 109.1840000
  90.5310000  66.7990000 122.4900000  91.9807774  73.9002005 123.9161438
  90.4716515  73.8147848 123.8292115  89.9119757  72.9116163 124.9202000
  88.4132477  72.8560210 124.7533451  87.7941405  71.9892373 125.8263042
  86.2878159  72.1211808 125.7517451  85.6700844  71.3200000 124.6030000
  84.1240000  71.3200000 124.6030000  83.5166962  72.7467263 124.6030000
  84.0145752  73.6732788 123.4904628  83.4598467  75.0867891 123.7130727
  83.9673630  76.0502987 122.6450697  83.4154346  77.4614171 122.8658251
  83.9239851  78.4016350 121.7706481  83.3772930  79.8167717 121.9477523
  83.8898686  80.7341607 120.8498111  83.6005855  70.6701111 125.9500708
  83.9194433  71.4880878 127.1944143  83.3773105  70.8484234 128.4688002
  83.8053195  71.7123543 129.6489314  83.2890424  71.1910436 130.9835243
  83.7769725  72.1048104 132.1072741  83.2875096  71.6260682 133.4644484
  83.7753658  72.5370515 134.5783876  83.5691881  70.4493906 123.4366574
  83.9227005  68.9635280 123.3264780  83.5289988  68.0288091 124.4749995
  82.0209550  68.0441187 124.7299279  81.3464239  67.3942166 123.5394070
  79.8380011  67.4649084 123.5480254  79.3578934  66.7693069 122.2765471
  77.8498128  66.7660083 122.1844068  90.0690000  67.0670000 121.5350000
  89.9920455  66.6963397 121.5426543  89.9095611  66.3644972 123.2825043
  92.2759754  74.3016320 124.8918291  92.4161727  72.8982427 123.8264485
  90.1689720  73.4276836 122.8490912  90.0298237  74.8144455 123.9288742
  90.1752239  73.3048512 125.9072884  90.3404698  71.9027144 124.8409043
  88.1563187  72.4707845 123.7665598  87.9998951  73.8740287 124.8243450
  88.1282658  72.3272563 126.8125970  88.1083866  70.9437500 125.7225358
  85.9987068  73.1769578 125.7065596  85.9756052  71.7793389 126.7188530
  85.9903425  70.2769625 124.6523618  85.9843881  71.7224737 123.6352644
  83.7632357  73.2156140 125.5454736  82.4283203  72.6326983 124.5492458
  83.6940002  73.3207926 122.5044638  85.1077742  73.7295951 123.4819587
  83.7639731  75.4465757 124.7041851  82.3635120  75.0572478 123.7006420
  83.6729548  75.6887877 121.6552164  85.0635354  76.0807619 122.6695471
  83.7210479  77.8301915 123.8395016  82.3187292  77.4367877 122.8502742
  83.6275892  78.0148654 120.7893420  85.0200986  78.4262493 121.7923350
  83.6777766  80.2157647 122.9237785  82.2820217  79.8003078 121.9243739
  84.9829208  80.7974951 120.8703196  83.4870697  81.7428999 120.9783585
  83.5868333  80.3698719 119.8623785  84.0550542  69.6789619 126.0311353
  82.5126585  70.5595741 125.8407896  83.4656181  72.4800562 127.1381875
  85.0008946  71.6187973 127.2902741  83.7627371  69.8260534 128.5820741
  82.2824861  70.7840040 128.4215077  83.4425386  72.7373520 129.4994737
  84.9015863  71.7634758 129.6791920  83.6506747  70.1668178 131.1498961
  82.1959449  71.1591222 130.9738868  83.4221846  73.1282743 131.9286315
  84.8724191  72.1408192 132.1041142  83.6417464  70.6051405 133.6521609
  82.1900941  71.5943802 133.4786289  84.8703061  72.5696533 134.6051465
  83.4219240  72.1762630 135.5492081  83.4057896  73.5584462 134.4385654
  83.9820187  70.8802503 122.5203470  82.4839227  70.6012412 123.4199759
  84.9607693  68.8169570 123.0242213  83.4350395  68.6109919 122.4118611
  84.0940450  68.2217473 125.3898266  83.8317210  67.0061249 124.2064306
  81.6465027  69.0674619 124.8749115  81.7898803  67.4986479 125.6514420
  81.6763367  66.3491193 123.4837990  81.6659557  67.8727440 122.6117341
  79.5132828  68.5150482 123.5503644  79.4344417  66.9859961 124.4427258
  79.7291578  65.7376438 122.2593392  79.7747044  67.2701868 121.3937975
  77.4158940  66.2681213 123.0555217  77.5351443  66.2340585 121.2835860
  77.4681053  67.7903538 122.1363583  92.0000000  64.0000000 116.9240000
  81.5850000  75.9640000 126.2210000  87.8528435  78.4672258 127.1598018
  86.3236208  78.4763423 127.1598476  85.7589748  77.0543454 127.1589514
  84.2307844  77.0609019 127.1583803  83.6592430  75.6610000 127.1580000
  82.3050000  75.6610000 127.1580000  84.3094269  74.6287992 127.1574242
  81.3980000  76.5650000 124.3630000  81.0269627  76.5646082 125.4964083
  81.0239482  75.9486945 127.1604991  88.2220424  77.9328952 128.0432020
  88.2227372  77.9319623 126.2782715  85.9602267  79.0159011 126.2774328
  85.9591634  79.0159044 128.0423625  86.1251151  76.5104740 128.0379224
  86.1250361  76.5119952 126.2777225  83.8635586  77.5793983 126.2661832
  83.8637875  77.5788719 128.0516810  81.9127631  76.5543881 127.1580000
  90.5310000  66.7990000 140.4650000  91.9807774  73.9002005 141.8911438
  90.4716515  73.8147848 141.8042115  89.9119757  72.9116163 142.8952000
  88.4132477  72.8560210 142.7283451  87.7941405  71.9892373 143.8013042
  86.2878159  72.1211808 143.7267451  85.6700844  71.3200000 142.5780000
  84.1240000  71.3200000 142.5780000  83.5166962  72.7467263 142.5780000
  84.0145752  73.6732788 141.4654628  83.4598467  75.0867891 141.6880727
  83.9673630  76.0502987 140.6200697  83.4154346  77.4614171 140.8408251
  83.9239851  78.4016350 139.7456481  83.3772930  79.8167717 139.9227523
  83.8898686  80.7341607 138.8248111  83.6005855  70.6701111 143.9250708
  83.9194433  71.4880878 145.1694143  83.3773105  70.8484234 146.4438002
  83.8053195  71.7123543 147.6239314  83.2890424  71.1910436 148.9585243
  83.7769725  72.1048104 150.0822741  83.2875096  71.6260682 151.4394484
  83.7753658  72.5370515 152.5533876  83.5691881  70.4493906 141.4116574
  83.9227005  68.9635280 141.3014780  83.5289988  68.0288091 142.4499995
  82.0209550  68.0441187 142.7049279  81.3464239  67.3942166 141.5144070
  79.8380011  67.4649084 141.5230254  79.3578934  66.7693069 140.2515471
  77.8498128  66.7660083 140.1594068  90.0690000  67.0670000 139.5100000
  89.9920455  66.6963397 139.5176543  89.9095611  66.3644972 141.2575043
  92.2759754  74.3016320 142.8668291  92.4161727  72.8982427 141.8014485
  90.1689720  73.4276836 140.8240912  90.0298237  74.8144455 141.9038742
  90.1752239  73.3048512 143.8822884  90.3404698  71.9027144 142.8159043
  88.1563187  72.4707845 141.7415598  87.9998951  73.8740287 142.7993450
  88.1282658  72.3272563 144.7875970  88.1083866  70.9437500 143.6975358
  85.9987068  73.1769578 143.6815596  85.9756052  71.7793389 144.6938530
  85.9903425  70.2769625 142.6273618  85.9843881  71.7224737 141.6102644
  83.7632357  73.2156140 143.5204736  82.4283203  72.6326983 142.5242458
  83.6940002  73.3207926 140.4794638  85.1077742  73.7295951 141.4569587
  83.7639731  75.4465757 142.6791851  82.3635120  75.0572478 141.6756420
  83.6729548  75.6887877 139.6302164  85.0635354  76.0807619 140.6445471
  83.7210479  77.8301915 141.8145016  82.3187292  77.4367877 140.8252742
  83.6275892  78.0148654 138.7643420  85.0200986  78.4262493 139.7673350
  83.6777766  80.2157647 140.8987785  82.2820217  79.8003078 139.8993739
  84.9829208  80.7974951 138.8453196  83.4870697  81.7428999 138.9533585
  83.5868333  80.3698719 137.8373785  84.0550542  69.6789619 144.0061353
  82.5126585  70.5595741 143.8157896  83.4656181  72.4800562 145.1131875
  85.0008946  71.6187973 145.2652741  83.7627371  69.8260534 146.5570741
  82.2824861  70.7840040 146.3965077  83.4425386  72.7373520 147.4744737
  84.9015863  71.7634758 147.6541920  83.6506747  70.1668178 149.1248961
  82.1959449  71.1591222 148.9488868  83.4221846  73.1282743 149.9036315
  84.8724191  72.1408192 150.0791142  83.6417464  70.6051405 151.6271609
  82.1900941  71.5943802 151.4536289  84.8703061  72.5696533 152.5801465
  83.4219240  72.1762630 153.5242081  83.4057896  73.5584462 152.4135654
  83.9820187  70.8802503 140.4953470  82.4839227  70.6012412 141.3949759
  84.9607693  68.8169570 140.9992213  83.4350395  68.6109919 140.3868611
  84.0940450  68.2217473 143.3648266  83.8317210  67.0061249 142.1814306
  81.6465027  69.0674619 142.8499115  81.7898803  67.4986479 143.6264420
  81.6763367  66.3491193 141.4587990  81.6659557  67.8727440 140.5867341
  79.5132828  68.5150482 141.5253644  79.4344417  66.9859961 142.4177258
  79.7291578  65.7376438 140.2343392  79.7747044  67.2701868 139.3687975
  77.4158940  66.2681213 141.0305217  77.5351443  66.2340585 139.2585860
  77.4681053  67.7903538 140.1113583  92.0000000  64.0000000 134.8990000
  81.5850000  75.9640000 144.1960000  87.8528435  78.4672258 145.1348018
  86.3236208  78.4763423 145.1348476  85.7589748  77.0543454 145.1339514
  84.2307844  77.0609019 145.1333803  83.6592430  75.6610000 145.1330000
  82.3050000  75.6610000 145.1330000  84.3094269  74.6287992 145.1324242
  81.3980000  76.5650000 142.3380000  81.0269627  76.5646082 143.4714083
  81.0239482  75.9486945 145.1354991  88.2220424  77.9328952 146.0182020
  88.2227372  77.9319623 144.2532715  85.9602267  79.0159011 144.2524328
  85.9591634  79.0159044 146.0173625  86.1251151  76.5104740 146.0129224
  86.1250361  76.5119952 144.2527225  83.8635586  77.5793983 144.2411832
  83.8637875  77.5788719 146.0266810  81.9127631  76.5543881 145.1330000
  90.5310000  66.7990000 158.4400000  91.9807774  73.9002005 159.8661438
  90.4716515  73.8147848 159.7792115  89.9119757  72.9116163 160.8702000
  88.4132477  72.8560210 160.7033451  87.7941405  71.9892373 161.7763042
  86.2878159  72.1211808 161.7017451  85.6700844  71.3200000 160.5530000
  84.1240000  71.3200000 160.5530000  83.5166962  72.7467263 160.5530000
  84.0145752  73.6732788 159.4404628  83.4598467  75.0867891 159.6630727
  83.9673630  76.0502987 158.5950697  83.4154346  77.4614171 158.8158251
  83.9239851  78.4016350 157.7206481  83.3772930  79.8167717 157.8977523
  83.8898686  80.7341607 156.7998111  83.6005855  70.6701111 161.9000708
  83.9194433  71.4880878 163.1444143  83.3773105  70.8484234 164.4188002
  83.8053195  71.7123543 165.5989314  83.2890424  71.1910436 166.9335243
  83.7769725  72.1048104 168.0572741  83.2875096  71.6260682 169.4144484
  83.7753658  72.5370515 170.5283876  83.5691881  70.4493906 159.3866574
  83.9227005  68.9635280 159.2764780  83.5289988  68.0288091 160.4249995
  82.0209550  68.0441187 160.6799279  81.3464239  67.3942166 159.4894070
  79.8380011  67.4649084 159.4980254  79.3578934  66.7693069 158.2265471
  77.8498128  66.7660083 158.1344068  90.0690000  67.0670000 157.4850000
  89.9920455  66.6963397 157.4926543  89.9095611  66.3644972 159.2325043
  92.2759754  74.3016320 160.8418291  92.4161727  72.8982427 159.7764485
  90.1689720  73.4276836 158.7990912  90.0298237  74.8144455 159.8788742
  90.1752239  73.3048512 161.8572884  90.3404698  71.9027144 160.7909043
  88.1563187  72.4707845 159.7165598  87.9998951  73.8740287 160.7743450
  88.1282658  72.3272563 162.7625970  88.1083866  70.9437500 161.6725358
  85.9987068  73.1769578 161.6565596  85.9756052  71.7793389 162.6688530
  85.9903425  70.2769625 160.6023618  85.9843881  71.7224737 159.5852644
  83.7632357  73.2156140 161.4954736  82.4283203  72.6326983 160.4992458
  83.6940002  73.3207926 158.4544638  85.1077742  73.7295951 159.4319587
  83.7639731  75.4465757 160.6541851  82.3635120  75.0572478 159.6506420
  83.6729548  75.6887877 157.6052164  85.0635354  76.0807619 158.6195471
  83.7210479  77.8301915 159.7895016  82.3187292  77.4367877 158.8002742
  83.6275892  78.0148654 156.7393420  85.0200986  78.4262493 157.7423350
  83.6777766  80.2157647 158.8737785  82.2820217  79.8003078 157.8743739
  84.9829208  80.7974951 156.8203196  83.4870697  81.7428999 156.9283585
  83.5868333  80.3698719 155.8123785  84.0550542  69.6789619 161.9811353
  82.5126585  70.5595741 161.7907896  83.4656181  72.4800562 163.0881875
  85.0008946  71.6187973 163.2402741  83.7627371  69.8260534 164.5320741
  82.2824861  70.7840040 164.3715077  83.4425386  72.7373520 165.4494737
  84.9015863  71.7634758 165.6291920  83.6506747  70.1668178 167.0998961
  82.1959449  71.1591222 166.9238868  83.4221846  73.1282743 167.8786315
  84.8724191  72.1408192 168.0541142  83.6417464  70.6051405 169.6021609
  82.1900941  71.5943802 169.4286289  84.8703061  72.5696533 170.5551465
  83.4219240  72.1762630 171.4992081  83.4057896  73.5584462 170.3885654
  83.9820187  70.8802503 158.4703470  82.4839227  70.6012412 159.3699759
  84.9607693  68.8169570 158.9742213  83.4350395  68.6109919 158.3618611
  84.0940450  68.2217473 161.3398266  83.8317210  67.0061249 160.1564306
  81.6465027  69.0674619 160.8249115  81.7898803  67.4986479 161.6014420
  81.6763367  66.3491193 159.4337990  81.6659557  67.8727440 158.5617341
  79.5132828  68.5150482 159.5003644  79.4344417  66.9859961 160.3927258
  79.7291578  65.7376438 158.2093392  79.7747044  67.2701868 157.3437975
  77.4158940  66.2681213 159.0055217  77.5351443  66.2340585 157.2335860
  77.4681053  67.7903538 158.0863583  92.0000000  64.0000000 152.8740000
  81.5850000  75.9640000 162.1710000  87.8528435  78.4672258 163.1098018
  86.3236208  78.4763423 163.1098476  85.7589748  77.0543454 163.1089514
  84.2307844  77.0609019 163.1083803  83.6592430  75.6610000 163.1080000
  82.3050000  75.6610000 163.1080000  84.3094269  74.6287992 163.1074242
  81.3980000  76.5650000 160.3130000  81.0269627  76.5646082 161.4464083
  81.0239482  75.9486945 163.1104991  88.2220424  77.9328952 163.9932020
  88.2227372  77.9319623 162.2282715  85.9602267  79.0159011 162.2274328
  85.9591634  79.0159044 163.9923625  86.1251151  76.5104740 163.9879224
  86.1250361  76.5119952 162.2277225  83.8635586  77.5793983 162.2161832
  83.8637875  77.5788719 164.0016810  81.9127631  76.5543881 163.1080000
  90.5310000  66.7990000 176.4150000  91.9807774  73.9002005 177.8411438
  90.4716515  73.8147848 177.7542115  89.9119757  72.9116163 178.8452000
  88.4132477  72.8560210 178.6783451  87.7941405  71.9892373 179.7513042
  86.2878159  72.1211808 179.6767451  85.6700844  71.3200000 178.5280000
  84.1240000  71.3200000 178.5280000  83.5166962  72.7467263 178.5280000
  84.0145752  73.6732788 177.4154628  83.4598467  75.0867891 177.6380727
  83.9673630  76.0502987 176.5700697  83.4154346  77.4614171 176.7908251
  83.9239851  78.4016350 175.6956481  83.3772930  79.8167717 175.8727523
  83.8898686  80.7341607 174.7748111  83.6005855  70.6701111 179.8750708
  83.9194433  71.4880878 181.1194143  83.3773105  70.8484234 182.3938002
  83.8053195  71.7123543 183.5739314  83.2890424  71.1910436 184.9085243
  83.7769725  72.1048104 186.0322741  83.2875096  71.6260682 187.3894484
  83.7753658  72.5370515 188.5033876  83.5691881  70.4493906 177.3616574
  83.9227005  68.9635280 177.2514780  83.5289988  68.0288091 178.3999995
  82.0209550  68.0441187 178.6549279  81.3464239  67.3942166 177.4644070
  79.8380011  67.4649084 177.4730254  79.3578934  66.7693069 176.2015471
  77.8498128  66.7660083 176.1094068  90.0690000  67.0670000 175.4600000
  89.9920455  66.6963397 175.4676543  89.9095611  66.3644972 177.2075043
  92.2759754  74.3016320 178.8168291  92.4161727  72.8982427 177.7514485
  90.1689720  73.4276836 176.7740912  90.0298237  74.8144455 177.8538742
  90.1752239  73.3048512 179.8322884  90.3404698  71.9027144 178.7659043
  88.1563187  72.4707845 177.6915598  87.9998951  73.8740287 178.7493450
  88.1282658  72.3272563 180.7375970  88.1083866  70.9437500 179.6475358
  85.9987068  73.1769578 179.6315596  85.9756052  71.7793389 180.6438530
  85.9903425  70.2769625 178.5773618  85.9843881  71.7224737 177.5602644
  83.7632357  73.2156140 179.4704736  82.4283203  72.6326983 178.4742458
  83.6940002  73.3207926 176.4294638  85.1077742  73.7295951 177.4069587
  83.7639731  75.4465757 178.6291851  82.3635120  75.0572478 177.6256420
  83.6729548  75.6887877 175.5802164  85.0635354  76.0807619 176.5945471
  83.7210479  77.8301915 177.7645016  82.3187292  77.4367877 176.7752742
  83.6275892  78.0148654 174.7143420  85.0200986  78.4262493 175.7173350
  83.6777766  80.2157647 176.8487785  82.2820217  79.8003078 175.8493739
  84.9829208  80.7974951 174.7953196  83.4870697  81.7428999 174.9033585
  83.5868333  80.3698719 173.7873785  84.0550542  69.6789619 179.9561353
  82.5126585  70.5595741 179.7657896  83.4656181  72.4800562 181.0631875
  85.0008946  71.6187973 181.2152741  83.7627371  69.8260534 182.5070741
  82.2824861  70.7840040 182.3465077  83.4425386  72.7373520 183.4244737
  84.9015863  71.7634758 183.6041920  83.6506747  70.1668178 185.0748961
  82.1959449  71.1591222 184.8988868  83.4221846  73.1282743 185.8536315
  84.8724191  72.1408192 186.0291142  83.6417464  70.6051405 187.5771609
  82.1900941  71.5943802 187.4036289  84.8703061  72.5696533 188.5301465
  83.4219240  72.1762630 189.4742081  83.4057896  73.5584462 188.3635654
  83.9820187  70.8802503 176.4453470  82.4839227  70.6012412 177.3449759
  84.9607693  68.8169570 176.9492213  83.4350395  68.6109919 176.3368611
  84.0940450  68.2217473 179.3148266  83.8317210  67.0061249 178.1314306
  81.6465027  69.0674619 178.7999115  81.7898803  67.4986479 179.5764420
  81.6763367  66.3491193 177.4087990  81.6659557  67.8727440 176.5367341
  79.5132828  68.5150482 177.4753644  79.4344417  66.9859961 178.3677258
  79.7291578  65.7376438 176.1843392  79.7747044  67.2701868 175.3187975
  77.4158940  66.2681213 176.9805217  77.5351443  66.2340585 175.2085860
  77.4681053  67.7903538 176.0613583  92.0000000  64.0000000 170.8490000
  81.5850000  75.9640000 180.1460000  87.8528435  78.4672258 181.0848018
  86.3236208  78.4763423 181.0848476  85.7589748  77.0543454 181.0839514
  84.2307844  77.0609019 181.0833803  83.6592430  75.6610000 181.0830000
  82.3050000  75.6610000 181.0830000  84.3094269  74.6287992 181.0824242
  81.3980000  76.5650000 178.2880000  81.0269627  76.5646082 179.4214083
  81.0239482  75.9486945 181.0854991  88.2220424  77.9328952 181.9682020
  88.2227372  77.9319623 180.2032715  85.9602267  79.0159011 180.2024328
  85.9591634  79.0159044 181.9673625  86.1251151  76.5104740 181.9629224
  86.1250361  76.5119952 180.2027225  83.8635586  77.5793983 180.1911832
  83.8637875  77.5788719 181.9766810  81.9127631  76.5543881 181.0830000
  90.5310000  85.4030000  68.5660000  91.9807774  92.5042005  69.9921438
  90.4716515  92.4187848  69.9052115  89.9119757  91.5156163  70.9962000
  88.4132477  91.4600210  70.8293451  87.7941405  90.5932373  71.9023042
  86.2878159  90.7251808  71.8277451  85.6700844  89.9240000  70.6790000
  84.1240000  89.9240000  70.6790000  83.5166962  91.3507263  70.6790000
  84.0145752  92.2772788  69.5664628  83.4598467  93.6907891  69.7890727
  83.9673630  94.6542987  68.7210697  83.4154346  96.0654171  68.9418251
  83.9239851  97.0056350  67.8466481  83.3772930  98.4207717  68.0237523
  83.8898686  99.3381607  66.9258111  83.6005855  89.2741111  72.0260708
  83.9194433  90.0920878  73.2704143  83.3773105  89.4524234  74.5448002
  83.8053195  90.3163543  75.7249314  83.2890424  89.7950436  77.0595243
  83.7769725  90.7088104  78.1832741  83.2875096  90.2300682  79.5404484
  83.7753658  91.1410515  80.6543876  83.5691881  89.0533906  69.5126574
  83.9227005  87.5675280  69.4024780  83.5289988  86.6328091  70.5509995
  82.0209550  86.6481187  70.8059279  81.3464239  85.9982166  69.6154070
  79.8380011  86.0689084  69.6240254  79.3578934  85.3733069  68.3525471
  77.8498128  85.3700083  68.2604068  90.0690000  85.6710000  67.6110000
  89.9920455  85.3003397  67.6186543  89.9095611  84.9684972  69.3585043
  92.2759754  92.9056320  70.9678291  92.4161727  91.5022427  69.9024485
  90.1689720  92.0316836  68.9250912  90.0298237  93.4184455  70.0048742
  90.1752239  91.9088512  71.9832884  90.3404698  90.5067144  70.9169043
  88.1563187  91.0747845  69.8425598  87.9998951  92.4780287  70.9003450
  88.1282658  90.9312563  72.8885970  88.1083866  89.5477500  71.7985358
  85.9987068  91.7809578  71.7825596  85.9756052  90.3833389  72.7948530
  85.9903425  88.8809625  70.7283618  85.9843881  90.3264737  69.7112644
  83.7632357  91.8196140  71.6214736  82.4283203  91.2366983  70.6252458
  83.6940002  91.9247926  68.5804638  85.1077742  92.3335951  69.5579587
  83.7639731  94.0505757  70.7801851  82.3635120  93.6612478  69.7766420
  83.6729548  94.2927877  67.7312164  85.0635354  94.6847619  68.7455471
  83.7210479  96.4341915  69.9155016  82.3187292  96.0407877  68.9262742
  83.6275892  96.6188654  66.8653420  85.0200986  97.0302493  67.8683350
  83.6777766  98.8197647  68.9997785  82.2820217  98.4043078  68.0003739
  84.9829208  99.4014951  66.9463196  83.4870697 100.3468999  67.0543585
  83.5868333  98.9738719  65.9383785  84.0550542  88.2829619  72.1071353
  82.5126585  89.1635741  71.9167896  83.4656181  91.0840562  73.2141875
  85.0008946  90.2227973  73.3662741  83.7627371  88.4300534  74.6580741
  82.2824861  89.3880040  74.4975077  83.4425386  91.3413520  75.5754737
  84.9015863  90.3674758  75.7551920  83.6506747  88.7708178  77.2258961
  82.1959449  89.7631222  77.0498868  83.4221846  91.7322743  78.0046315
  84.8724191  90.7448192  78.1801142  83.6417464  89.2091405  79.7281609
  82.1900941  90.1983802  79.5546289  84.8703061  91.1736533  80.6811465
  83.4219240  90.7802630  81.6252081  83.4057896  92.1624462  80.5145654
  83.9820187  89.4842503  68.5963470  82.4839227  89.2052412  69.4959759
  84.9607693  87.4209570  69.1002213  83.4350395  87.2149919  68.4878611
  84.0940450  86.8257473  71.4658266  83.8317210  85.6101249  70.2824306
  81.6465027  87.6714619  70.9509115  81.7898803  86.1026479  71.7274420
  81.6763367  84.9531193  69.5597990  81.6659557  86.4767440  68.6877341
  79.5132828  87.1190482  69.6263644  79.4344417  85.5899961  70.5187258
  79.7291578  84.3416438  68.3353392  79.7747044  85.8741868  67.4697975
  77.4158940  84.8721213  69.1315217  77.5351443  84.8380585  67.3595860
  77.4681053  86.3943538  68.2123583  92.0000000  82.6040000  63.0000000
  81.5850000  94.5680000  72.2970000  87.8528435  97.0712258  73.2358018
  86.3236208  97.0803423  73.2358476  85.7589748  95.6583454  73.2349514
  84.2307844  95.6649019  73.2343803  83.6592430  94.2650000  73.2340000
  82.3050000  94.2650000  73.2340000  84.3094269  93.2327992  73.2334242
  81.3980000  95.1690000  70.4390000  81.0269627  95.1686082  71.5724083
  81.0239482  94.5526945  73.2364991  88.2220424  96.5368952  74.1192020
  88.2227372  96.5359623  72.3542715  85.9602267  97.6199011  72.3534328
  85.9591634  97.6199044  74.1183625  86.1251151  95.1144740  74.1139224
  86.1250361  95.1159952  72.3537225  83.8635586  96.1833983  72.3421832
  83.8637875  96.1828719  74.1276810  81.9127631  95.1583881  73.2340000
  90.5310000  85.4030000  86.5410000  91.9807774  92.5042005  87.9671438
  90.4716515  92.4187848  87.8802115  89.9119757  91.5156163  88.9712000
  88.4132477  91.4600210  88.8043451  87.7941405  90.5932373  89.8773042
  86.2878159  90.7251808  89.8027451  85.6700844  89.9240000  88.6540000
  84.1240000  89.9240000  88.6540000  83.5166962  91.3507263  88.6540000
  84.0145752  92.2772788  87.5414628  83.4598467  93.6907891  87.7640727
  83.9673630  94.6542987  86.6960697  83.4154346  96.0654171  86.9168251
  83.9239851  97.0056350  85.8216481  83.3772930  98.4207717  85.9987523
  83.8898686  99.3381607  84.9008111  83.6005855  89.2741111  90.0010708
  83.9194433  90.0920878  91.2454143  83.3773105  89.4524234  92.5198002
  83.8053195  90.3163543  93.6999314  83.2890424  89.7950436  95.0345243
  83.7769725  90.7088104  96.1582741  83.2875096  90.2300682  97.5154484
  83.7753658  91.1410515  98.6293876  83.5691881  89.0533906  87.4876574
  83.9227005  87.5675280  87.3774780  83.5289988  86.6328091  88.5259995
  82.0209550  86.6481187  88.7809279  81.3464239  85.9982166  87.5904070
  79.8380011  86.0689084  87.5990254  79.3578934  85.3733069  86.3275471
  77.8498128  85.3700083  86.2354068  90.0690000  85.6710000  85.5860000
  89.9920455  85.3003397  85.5936543  89.9095611  84.9684972  87.3335043
  92.2759754  92.9056320  88.9428291  92.4161727  91.5022427  87.8774485
  90.1689720  92.0316836  86.9000912  90.0298237  93.4184455  87.9798742
  90.1752239  91.9088512  89.9582884  90.3404698  90.5067144  88.8919043
  88.1563187  91.0747845  87.8175598  87.9998951  92.4780287  88.8753450
  88.1282658  90.9312563  90.8635970  88.1083866  89.5477500  89.7735358
  85.9987068  91.7809578  89.7575596  85.9756052  90.3833389  90.7698530
  85.9903425  88.8809625  88.7033618  85.9843881  90.3264737  87.6862644
  83.7632357  91.8196140  89.5964736  82.4283203  91.2366983  88.6002458
  83.6940002  91.9247926  86.5554638  85.1077742  92.3335951  87.5329587
  83.7639731  94.0505757  88.7551851  82.3635120  93.6612478  87.7516420
  83.6729548  94.2927877  85.7062164  85.0635354  94.6847619  86.7205471
  83.7210479  96.4341915  87.8905016  82.3187292  96.0407877  86.9012742
  83.6275892  96.6188654  84.8403420  85.0200986  97.0302493  85.8433350
  83.6777766  98.8197647  86.9747785  82.2820217  98.4043078  85.9753739
  84.9829208  99.4014951  84.9213196  83.4870697 100.3468999  85.0293585
  83.5868333  98.9738719  83.9133785  84.0550542  88.2829619  90.0821353
  82.5126585  89.1635741  89.8917896  83.4656181  91.0840562  91.1891875
  85.0008946  90.2227973  91.3412741  83.7627371  88.4300534  92.6330741
  82.2824861  89.3880040  92.4725077  83.4425386  91.3413520  93.5504737
  84.9015863  90.3674758  93.7301920  83.6506747  88.7708178  95.2008961
  82.1959449  89.7631222  95.0248868  83.4221846  91.7322743  95.9796315
  84.8724191  90.7448192  96.1551142  83.6417464  89.2091405  97.7031609
  82.1900941  90.1983802  97.5296289  84.8703061  91.1736533  98.6561465
  83.4219240  90.7802630  99.6002081  83.4057896  92.1624462  98.4895654
  83.9820187  89.4842503  86.5713470  82.4839227  89.2052412  87.4709759
  84.9607693  87.4209570  87.0752213  83.4350395  87.2149919  86.4628611
  84.0940450  86.8257473  89.4408266  83.8317210  85.6101249  88.2574306
  81.6465027  87.6714619  88.9259115  81.7898803  86.1026479  89.7024420
  81.6763367  84.9531193  87.5347990  81.6659557  86.4767440  86.6627341
  79.5132828  87.1190482  87.6013644  79.4344417  85.5899961  88.4937258
  79.7291578  84.3416438  86.3103392  79.7747044  85.8741868  85.4447975
  77.4158940  84.8721213  87.1065217  77.5351443  84.8380585  85.3345860
  77.4681053  86.3943538  86.1873583  92.0000000  82.6040000  80.9750000
  81.5850000  94.5680000  90.2720000  87.8528435  97.0712258  91.2108018
  86.3236208  97.0803423  91.2108476  85.7589748  95.6583454  91.2099514
  84.2307844  95.6649019  91.2093803  83.6592430  94.2650000  91.2090000
  82.3050000  94.2650000  91.2090000  84.3094269  93.2327992  91.2084242
  81.3980000  95.1690000  88.4140000  81.0269627  95.1686082  89.5474083
  81.0239482  94.5526945  91.2114991  88.2220424  96.5368952  92.0942020
  88.2227372  96.5359623  90.3292715  85.9602267  97.6199011  90.3284328
  85.9591634  97.6199044  92.0933625  86.1251151  95.1144740  92.0889224
  86.1250361  95.1159952  90.3287225  83.8635586  96.1833983  90.3171832
  83.8637875  96.1828719  92.1026810  81.9127631  95.1583881  91.2090000
  90.5310000  85.4030000 104.5160000  91.9807774  92.5042005 105.9421438
  90.4716515  92.4187848 105.8552115  89.9119757  91.5156163 106.9462000
  88.4132477  91.4600210 106.7793451  87.7941405  90.5932373 107.8523042
  86.2878159  90.7251808 107.7777451  85.6700844  89.9240000 106.6290000
  84.1240000  89.9240000 106.6290000  83.5166962  91.3507263 106.6290000
  84.0145752  92.2772788 105.5164628  83.4598467  93.6907891 105.7390727
  83.9673630  94.6542987 104.6710697  83.4154346  96.0654171 104.8918251
  83.9239851  97.0056350 103.7966481  83.3772930  98.4207717 103.9737523
  83.8898686  99.3381607 102.8758111  83.6005855  89.2741111 107.9760708
  83.9194433  90.0920878 109.2204143  83.3773105  89.4524234 110.4948002
  83.8053195  90.3163543 111.6749314  83.2890424  89.7950436 113.0095243
  83.7769725  90.7088104 114.1332741  83.2875096  90.2300682 115.4904484
  83.7753658  91.1410515 116.6043876  83.5691881  89.0533906 105.4626574
  83.9227005  87.5675280 105.3524780  83.5289988  86.6328091 106.5009995
  82.0209550  86.6481187 106.7559279  81.3464239  85.9982166 105.5654070
  79.8380011  86.0689084 105.5740254  79.3578934  85.3733069 104.3025471
  77.8498128  85.3700083 104.2104068  90.0690000  85.6710000 103.5610000
  89.9920455  85.3003397 103.5686543  89.9095611  84.9684972 105.3085043
  92.2759754  92.9056320 106.9178291  92.4161727  91.5022427 105.8524485
  90.1689720  92.0316836 104.8750912  90.0298237  93.4184455 105.9548742
  90.1752239  91.9088512 107.9332884  90.3404698  90.5067144 106.8669043
  88.1563187  91.0747845 105.7925598  87.9998951  92.4780287 106.8503450
  88.1282658  90.9312563 108.8385970  88.1083866  89.5477500 107.7485358
  85.9987068  91.7809578 107.7325596  85.9756052  90.3833389 108.7448530
  85.9903425  88.8809625 106.6783618  85.9843881  90.3264737 105.6612644
  83.7632357  91.8196140 107.5714736  82.4283203  91.2366983 106.5752458
  83.6940002  91.9247926 104.5304638  85.1077742  92.3335951 105.5079587
  83.7639731  94.0505757 106.7301851  82.3635120  93.6612478 105.7266420
  83.6729548  94.2927877 103.6812164  85.0635354  94.6847619 104.6955471
  83.7210479  96.4341915 105.8655016  82.3187292  96.0407877 104.8762742
  83.6275892  96.6188654 102.8153420  85.0200986  97.0302493 103.8183350
  83.6777766  98.8197647 104.9497785  82.2820217  98.4043078 103.9503739
  84.9829208  99.4014951 102.8963196  83.4870697 100.3468999 103.0043585
  83.5868333  98.9738719 101.8883785  84.0550542  88.2829619 108.0571353
  82.5126585  89.1635741 107.8667896  83.4656181  91.0840562 109.1641875
  85.0008946  90.2227973 109.3162741  83.7627371  88.4300534 110.6080741
  82.2824861  89.3880040 110.4475077  83.4425386  91.3413520 111.5254737
  84.9015863  90.3674758 111.7051920  83.6506747  88.7708178 113.1758961
  82.1959449  89.7631222 112.9998868  83.4221846  91.7322743 113.9546315
  84.8724191  90.7448192 114.1301142  83.6417464  89.2091405 115.6781609
  82.1900941  90.1983802 115.5046289  84.8703061  91.1736533 116.6311465
  83.4219240  90.7802630 117.5752081  83.4057896  92.1624462 116.4645654
  83.9820187  89.4842503 104.5463470  82.4839227  89.2052412 105.4459759
  84.9607693  87.4209570 105.0502213  83.4350395  87.2149919 104.4378611
  84.0940450  86.8257473 107.4158266  83.8317210  85.6101249 106.2324306
  81.6465027  87.6714619 106.9009115  81.7898803  86.1026479 107.6774420
  81.6763367  84.9531193 105.5097990  81.6659557  86.4767440 104.6377341
  79.5132828  87.1190482 105.5763644  79.4344417  85.5899961 106.4687258
  79.7291578  84.3416438 104.2853392  79.7747044  85.8741868 103.4197975
  77.4158940  84.8721213 105.0815217  77.5351443  84.8380585 103.3095860
  77.4681053  86.3943538 104.1623583  92.0000000  82.6040000  98.9500000
  81.5850000  94.5680000 108.2470000  87.8528435  97.0712258 109.1858018
  86.3236208  97.0803423 109.1858476  85.7589748  95.6583454 109.1849514
  84.2307844  95.6649019 109.1843803  83.6592430  94.2650000 109.1840000
  82.3050000  94.2650000 109.1840000  84.3094269  93.2327992 109.1834242
  81.3980000  95.1690000 106.3890000  81.0269627  95.1686082 107.5224083
  81.0239482  94.5526945 109.1864991  88.2220424  96.5368952 110.0692020
  88.2227372  96.5359623 108.3042715  85.9602267  97.6199011 108.3034328
  85.9591634  97.6199044 110.0683625  86.1251151  95.1144740 110.0639224
  86.1250361  95.1159952 108.3037225  83.8635586  96.1833983 108.2921832
  83.8637875  96.1828719 110.0776810  81.9127631  95.1583881 109.1840000
  90.5310000  85.4030000 122.4900000  91.9807774  92.5042005 123.9161438
  90.4716515  92.4187848 123.8292115  89.9119757  91.5156163 124.9202000
  88.4132477  91.4600210 124.7533451  87.7941405  90.5932373 125.8263042
  86.2878159  90.7251808 125.7517451  85.6700844  89.9240000 124.6030000
  84.1240000  89.9240000 124.6030000  83.5166962  91.3507263 124.6030000
  84.0145752  92.2772788 123.4904628  83.4598467  93.6907891 123.7130727
  83.9673630  94.6542987 122.6450697  83.4154346  96.0654171 122.8658251
  83.9239851  97.0056350 121.7706481  83.3772930  98.4207717 121.9477523
  83.8898686  99.3381607 120.8498111  83.6005855  89.2741111 125.9500708
  83.9194433  90.0920878 127.1944143  83.3773105  89.4524234 128.4688002
  83.8053195  90.3163543 129.6489314  83.2890424  89.7950436 130.9835243
  83.7769725  90.7088104 132.1072741  83.2875096  90.2300682 133.4644484
  83.7753658  91.1410515 134.5783876  83.5691881  89.0533906 123.4366574
  83.9227005  87.5675280 123.3264780  83.5289988  86.6328091 124.4749995
  82.0209550  86.6481187 124.7299279  81.3464239  85.9982166 123.5394070
  79.8380011  86.0689084 123.5480254  79.3578934  85.3733069 122.2765471
  77.8498128  85.3700083 122.1844068  90.0690000  85.6710000 121.5350000
  89.9920455  85.3003397 121.5426543  89.9095611  84.9684972 123.2825043
  92.2759754  92.9056320 124.8918291  92.4161727  91.5022427 123.8264485
  90.1689720  92.0316836 122.8490912  90.0298237  93.4184455 123.9288742
  90.1752239  91.9088512 125.9072884  90.3404698  90.5067144 124.8409043
  88.1563187  91.0747845 123.7665598  87.9998951  92.4780287 124.8243450
  88.1282658  90.9312563 126.8125970  88.1083866  89.5477500 125.7225358
  85.9987068  91.7809578 125.7065596  85.9756052  90.3833389 126.7188530
  85.9903425  88.8809625 124.6523618  85.9843881  90.3264737 123.6352644
  83.7632357  91.8196140 125.5454736  82.4283203  91.2366983 124.5492458
  83.6940002  91.9247926 122.5044638  85.1077742  92.3335951 123.4819587
  83.7639731  94.0505757 124.7041851  82.3635120  93.6612478 123.7006420
  83.6729548  94.2927877 121.6552164  85.0635354  94.6847619 122.6695471
  83.7210479  96.4341915 123.8395016  82.3187292  96.0407877 122.8502742
  83.6275892  96.6188654 120.7893420  85.0200986  97.0302493 121.7923350
  83.6777766  98.8197647 122.9237785  82.2820217  98.4043078 121.9243739
  84.9829208  99.4014951 120.8703196  83.4870697 100.3468999 120.9783585
  83.5868333  98.9738719 119.8623785  84.0550542  88.2829619 126.0311353
  82.5126585  89.1635741 125.8407896  83.4656181  91.0840562 127.1381875
  85.0008946  90.2227973 127.2902741  83.7627371  88.4300534 128.5820741
  82.2824861  89.3880040 128.4215077  83.4425386  91.3413520 129.4994737
  84.9015863  90.3674758 129.6791920  83.6506747  88.7708178 131.1498961
  82.1959449  89.7631222 130.9738868  83.4221846  91.7322743 131.9286315
  84.8724191  90.7448192 132.1041142  83.6417464  89.2091405 133.6521609
  82.1900941  90.1983802 133.4786289  84.8703061  91.1736533 134.6051465
  83.4219240  90.7802630 135.5492081  83.4057896  92.1624462 134.4385654
  83.9820187  89.4842503 122.5203470  82.4839227  89.2052412 123.4199759
  84.9607693  87.4209570 123.0242213  83.4350395  87.2149919 122.4118611
  84.0940450  86.8257473 125.3898266  83.8317210  85.6101249 124.2064306
  81.6465027  87.6714619 124.8749115  81.7898803  86.1026479 125.6514420
  81.6763367  84.9531193 123.4837990  81.6659557  86.4767440 122.6117341
  79.5132828  87.1190482 123.5503644  79.4344417  85.5899961 124.4427258
  79.7291578  84.3416438 122.2593392  79.7747044  85.8741868 121.3937975
  77.4158940  84.8721213 123.0555217  77.5351443  84.8380585 121.2835860
  77.4681053  86.3943538 122.1363583  92.0000000  82.6040000 116.9240000
  81.5850000  94.5680000 126.2210000  87.8528435  97.0712258 127.1598018
  86.3236208  97.0803423 127.1598476  85.7589748  95.6583454 127.1589514
  84.2307844  95.6649019 127.1583803  83.6592430  94.2650000 127.1580000
  82.3050000  94.2650000 127.1580000  84.3094269  93.2327992 127.1574242
  81.3980000  95.1690000 124.3630000  81.0269627  95.1686082 125.4964083
  81.0239482  94.5526945 127.1604991  88.2220424  96.5368952 128.0432020
  88.2227372  96.5359623 126.2782715  85.9602267  97.6199011 126.2774328
  85.9591634  97.6199044 128.0423625  86.1251151  95.1144740 128.0379224
  86.1250361  95.1159952 126.2777225  83.8635586  96.1833983 126.2661832
  83.8637875  96.1828719 128.0516810  81.9127631  95.1583881 127.1580000
  90.5310000  85.4030000 140.4650000  91.9807774  92.5042005 141.8911438
  90.4716515  92.4187848 141.8042115  89.9119757  91.5156163 142.8952000
  88.4132477  91.4600210 142.7283451  87.7941405  90.5932373 143.8013042
  86.2878159  90.7251808 143.7267451  85.6700844  89.9240000 142.5780000
  84.1240000  89.9240000 142.5780000  83.5166962  91.3507263 142.5780000
  84.0145752  92.2772788 141.4654628  83.4598467  93.6907891 141.6880727
  83.9673630  94.6542987 140.6200697  83.4154346  96.0654171 140.8408251
  83.9239851  97.0056350 139.7456481  83.3772930  98.4207717 139.9227523
  83.8898686  99.3381607 138.8248111  83.6005855  89.2741111 143.9250708
  83.9194433  90.0920878 145.1694143  83.3773105  89.4524234 146.4438002
  83.8053195  90.3163543 147.6239314  83.2890424  89.7950436 148.9585243
  83.7769725  90.7088104 150.0822741  83.2875096  90.2300682 151.4394484
  83.7753658  91.1410515 152.5533876  83.5691881  89.0533906 141.4116574
  83.9227005  87.5675280 141.3014780  83.5289988  86.6328091 142.4499995
  82.0209550  86.6481187 142.7049279  81.3464239  85.9982166 141.5144070
  79.8380011  86.0689084 141.5230254  79.3578934  85.3733069 140.2515471
  77.8498128  85.3700083 140.1594068  90.0690000  85.6710000 139.5100000
  89.9920455  85.3003397 139.5176543  89.9095611  84.9684972 141.2575043
  92.2759754  92.9056320 142.8668291  92.4161727  91.5022427 141.8014485
  90.1689720  92.0316836 140.8240912  90.0298237  93.4184455 141.9038742
  90.1752239  91.9088512 143.8822884  90.3404698  90.5067144 142.8159043
  88.1563187  91.0747845 141.7415598  87.9998951  92.4780287 142.7993450
  88.1282658  90.9312563 144.7875970  88.1083866  89.5477500 143.6975358
  85.9987068  91.7809578 143.6815596  85.9756052  90.3833389 144.6938530
  85.9903425  88.8809625 142.6273618  85.9843881  90.3264737 141.6102644
  83.7632357  91.8196140 143.5204736  82.4283203  91.2366983 142.5242458
  83.6940002  91.9247926 140.4794638  85.1077742  92.3335951 141.4569587
  83.7639731  94.0505757 142.6791851  82.3635120  93.6612478 141.6756420
  83.6729548  94.2927877 139.6302164  85.0635354  94.6847619 140.6445471
  83.7210479  96.4341915 141.8145016  82.3187292  96.0407877 140.8252742
  83.6275892  96.6188654 138.7643420  85.0200986  97.0302493 139.7673350
  83.6777766  98.8197647 140.8987785  82.2820217  98.4043078 139.8993739
  84.9829208  99.4014951 138.8453196  83.4870697 100.3468999 138.9533585
  83.5868333  98.9738719 137.8373785  84.0550542  88.2829619 144.0061353
  82.5126585  89.1635741 143.8157896  83.4656181  91.0840562 145.1131875
  85.0008946  90.2227973 145.2652741  83.7627371  88.4300534 146.5570741
  82.2824861  89.3880040 146.3965077  83.4425386  91.3413520 147.4744737
  84.9015863  90.3674758 147.6541920  83.6506747  88.7708178 149.1248961
  82.1959449  89.7631222 148.9488868  83.4221846  91.7322743 149.9036315
  84.8724191  90.7448192 150.0791142  83.6417464  89.2091405 151.6271609
  82.1900941  90.1983802 151.4536289  84.8703061  91.1736533 152.5801465
  83.4219240  90.7802630 153.5242081  83.4057896  92.1624462 152.4135654
  83.9820187  89.4842503 140.4953470  82.4839227  89.2052412 141.3949759
  84.9607693  87.4209570 140.9992213  83.4350395  87.2149919 140.3868611
  84.0940450  86.8257473 143.3648266  83.8317210  85.6101249 142.1814306
  81.6465027  87.6714619 142.8499115  81.7898803  86.1026479 143.6264420
  81.6763367  84.9531193 141.4587990  81.6659557  86.4767440 140.5867341
  79.5132828  87.1190482 141.5253644  79.4344417  85.5899961 142.4177258
  79.7291578  84.3416438 140.2343392  79.7747044  85.8741868 139.3687975
  77.4158940  84.8721213 141.0305217  77.5351443  84.8380585 139.2585860
  77.4681053  86.3943538 140.1113583  92.0000000  82.6040000 134.8990000
  81.5850000  94.5680000 144.1960000  87.8528435  97.0712258 145.1348018
  86.3236208  97.0803423 145.1348476  85.7589748  95.6583454 145.1339514
  84.2307844  95.6649019 145.1333803  83.6592430  94.2650000 145.1330000
  82.3050000  94.2650000 145.1330000  84.3094269  93.2327992 145.1324242
  81.3980000  95.1690000 142.3380000  81.0269627  95.1686082 143.4714083
  81.0239482  94.5526945 145.1354991  88.2220424  96.5368952 146.0182020
  88.2227372  96.5359623 144.2532715  85.9602267  97.6199011 144.2524328
  85.9591634  97.6199044 146.0173625  86.1251151  95.1144740 146.0129224
  86.1250361  95.1159952 144.2527225  83.8635586  96.1833983 144.2411832
  83.8637875  96.1828719 146.0266810  81.9127631  95.1583881 145.1330000
  90.5310000  85.4030000 158.4400000  91.9807774  92.5042005 159.8661438
  90.4716515  92.4187848 159.7792115  89.9119757  91.5156163 160.8702000
  88.4132477  91.4600210 160.7033451  87.7941405  90.5932373 161.7763042
  86.2878159  90.7251808 161.7017451  85.6700844  89.9240000 160.5530000
  84.1240000  89.9240000 160.5530000  83.5166962  91.3507263 160.5530000
  84.0145752  92.2772788 159.4404628  83.4598467  93.6907891 159.6630727
  83.9673630  94.6542987 158.5950697  83.4154346  96.0654171 158.8158251
  83.9239851  97.0056350 157.7206481  83.3772930  98.4207717 157.8977523
  83.8898686  99.3381607 156.7998111  83.6005855  89.2741111 161.9000708
  83.9194433  90.0920878 163.1444143  83.3773105  89.4524234 164.4188002
  83.8053195  90.3163543 165.5989314  83.2890424  89.7950436 166.9335243
  83.7769725  90.7088104 168.0572741  83.2875096  90.2300682 169.4144484
  83.7753658  91.1410515 170.5283876  83.5691881  89.0533906 159.3866574
  83.9227005  87.5675280 159.2764780  83.5289988  86.6328091 160.4249995
  82.0209550  86.6481187 160.6799279  81.3464239  85.9982166 159.4894070
  79.8380011  86.0689084 159.4980254  79.3578934  85.3733069 158.2265471
  77.8498128  85.3700083 158.1344068  90.0690000  85.6710000 157.4850000
  89.9920455  85.3003397 157.4926543  89.9095611  84.9684972 159.2325043
  92.2759754  92.9056320 160.8418291  92.4161727  91.5022427 159.7764485
  90.1689720  92.0316836 158.7990912  90.0298237  93.4184455 159.8788742
  90.1752239  91.9088512 161.8572884  90.3404698  90.5067144 160.7909043
  88.1563187  91.0747845 159.7165598  87.9998951  92.4780287 160.7743450
  88.1282658  90.9312563 162.7625970  88.1083866  89.5477500 161.6725358
  85.9987068  91.7809578 161.6565596  85.9756052  90.3833389 162.6688530
  85.9903425  88.8809625 160.6023618  85.9843881  90.3264737 159.5852644
  83.7632357  91.8196140 161.4954736  82.4283203  91.2366983 160.4992458
  83.6940002  91.9247926 158.4544638  85.1077742  92.3335951 159.4319587
  83.7639731  94.0505757 160.6541851  82.3635120  93.6612478 159.6506420
  83.6729548  94.2927877 157.6052164  85.0635354  94.6847619 158.6195471
  83.7210479  96.4341915 159.7895016  82.3187292  96.0407877 158.8002742
  83.6275892  96.6188654 156.7393420  85.0200986  97.0302493 157.7423350
  83.6777766  98.8197647 158.8737785  82.2820217  98.4043078 157.8743739
  84.9829208  99.4014951 156.8203196  83.4870697 100.3468999 156.9283585
  83.5868333  98.9738719 155.8123785  84.0550542  88.2829619 161.9811353
  82.5126585  89.1635741 161.7907896  83.4656181  91.0840562 163.0881875
  85.0008946  90.2227973 163.2402741  83.7627371  88.4300534 164.5320741
  82.2824861  89.3880040 164.3715077  83.4425386  91.3413520 165.4494737
  84.9015863  90.3674758 165.6291920  83.6506747  88.7708178 167.0998961
  82.1959449  89.7631222 166.9238868  83.4221846  91.7322743 167.8786315
  84.8724191  90.7448192 168.0541142  83.6417464  89.2091405 169.6021609
  82.1900941  90.1983802 169.4286289  84.8703061  91.1736533 170.5551465
  83.4219240  90.7802630 171.4992081  83.4057896  92.1624462 170.3885654
  83.9820187  89.4842503 158.4703470  82.4839227  89.2052412 159.3699759
  84.9607693  87.4209570 158.9742213  83.4350395  87.2149919 158.3618611
  84.0940450  86.8257473 161.3398266  83.8317210  85.6101249 160.1564306
  81.6465027  87.6714619 160.8249115  81.7898803  86.1026479 161.6014420
  81.6763367  84.9531193 159.4337990  81.6659557  86.4767440 158.5617341
  79.5132828  87.1190482 159.5003644  79.4344417  85.5899961 160.3927258
  79.7291578  84.3416438 158.2093392  79.7747044  85.8741868 157.3437975
  77.4158940  84.8721213 159.0055217  77.5351443  84.8380585 157.2335860
  77.4681053  86.3943538 158.0863583  92.0000000  82.6040000 152.8740000
  81.5850000  94.5680000 162.1710000  87.8528435  97.0712258 163.1098018
  86.3236208  97.0803423 163.1098476  85.7589748  95.6583454 163.1089514
  84.2307844  95.6649019 163.1083803  83.6592430  94.2650000 163.1080000
  82.3050000  94.2650000 163.1080000  84.3094269  93.2327992 163.1074242
  81.3980000  95.1690000 160.3130000  81.0269627  95.1686082 161.4464083
  81.0239482  94.5526945 163.1104991  88.2220424  96.5368952 163.9932020
  88.2227372  96.5359623 162.2282715  85.9602267  97.6199011 162.2274328
  85.9591634  97.6199044 163.9923625  86.1251151  95.1144740 163.9879224
  86.1250361  95.1159952 162.2277225  83.8635586  96.1833983 162.2161832
  83.8637875  96.1828719 164.0016810  81.9127631  95.1583881 163.1080000
  90.5310000  85.4030000 176.4150000  91.9807774  92.5042005 177.8411438
  90.4716515  92.4187848 177.7542115  89.9119757  91.5156163 178.8452000
  88.4132477  91.4600210 178.6783451  87.7941405  90.5932373 179.7513042
  86.2878159  90.7251808 179.6767451  85.6700844  89.9240000 178.5280000
  84.1240000  89.9240000 178.5280000  83.5166962  91.3507263 178.5280000
  84.0145752  92.2772788 177.4154628  83.4598467  93.6907891 177.6380727
  83.9673630  94.6542987 176.5700697  83.4154346  96.0654171 176.7908251
  83.9239851  97.0056350 175.6956481  83.3772930  98.4207717 175.8727523
  83.8898686  99.3381607 174.7748111  83.6005855  89.2741111 179.8750708
  83.9194433  90.0920878 181.1194143  83.3773105  89.4524234 182.3938002
  83.8053195  90.3163543 183.5739314  83.2890424  89.7950436 184.9085243
  83.7769725  90.7088104 186.0322741  83.2875096  90.2300682 187.3894484
  83.7753658  91.1410515 188.5033876  83.5691881  89.0533906 177.3616574
  83.9227005  87.5675280 177.2514780  83.5289988  86.6328091 178.3999995
  82.0209550  86.6481187 178.6549279  81.3464239  85.9982166 177.4644070
  79.8380011  86.0689084 177.4730254  79.3578934  85.3733069 176.2015471
  77.8498128  85.3700083 176.1094068  90.0690000  85.6710000 175.4600000
  89.9920455  85.3003397 175.4676543  89.9095611  84.9684972 177.2075043
  92.2759754  92.9056320 178.8168291  92.4161727  91.5022427 177.7514485
  90.1689720  92.0316836 176.7740912  90.0298237  93.4184455 177.8538742
  90.1752239  91.9088512 179.8322884  90.3404698  90.5067144 178.7659043
  88.1563187  91.0747845 177.6915598  87.9998951  92.4780287 178.7493450
  88.1282658  90.9312563 180.7375970  88.1083866  89.5477500 179.6475358
  85.9987068  91.7809578 179.6315596  85.9756052  90.3833389 180.6438530
  85.9903425  88.8809625 178.5773618  85.9843881  90.3264737 177.5602644
  83.7632357  91.8196140 179.4704736  82.4283203  91.2366983 178.4742458
  83.6940002  91.9247926 176.4294638  85.1077742  92.3335951 177.4069587
  83.7639731  94.0505757 178.6291851  82.3635120  93.6612478 177.6256420
  83.6729548  94.2927877 175.5802164  85.0635354  94.6847619 176.5945471
  83.7210479  96.4341915 177.7645016  82.3187292  96.0407877 176.7752742
  83.6275892  96.6188654 174.7143420  85.0200986  97.0302493 175.7173350
  83.6777766  98.8197647 176.8487785  82.2820217  98.4043078 175.8493739
  84.9829208  99.4014951 174.7953196  83.4870697 100.3468999 174.9033585
  83.5868333  98.9738719 173.7873785  84.0550542  88.2829619 179.9561353
  82.5126585  89.1635741 179.7657896  83.4656181  91.0840562 181.0631875
  85.0008946  90.2227973 181.2152741  83.7627371  88.4300534 182.5070741
  82.2824861  89.3880040 182.3465077  83.4425386  91.3413520 183.4244737
  84.9015863  90.3674758 183.6041920  83.6506747  88.7708178 185.0748961
  82.1959449  89.7631222 184.8988868  83.4221846  91.7322743 185.8536315
  84.8724191  90.7448192 186.0291142  83.6417464  89.2091405 187.5771609
  82.1900941  90.1983802 187.4036289  84.8703061  91.1736533 188.5301465
  83.4219240  90.7802630 189.4742081  83.4057896  92.1624462 188.3635654
  83.9820187  89.4842503 176.4453470  82.4839227  89.2052412 177.3449759
  84.9607693  87.4209570 176.9492213  83.4350395  87.2149919 176.3368611
  84.0940450  86.8257473 179.3148266  83.8317210  85.6101249 178.1314306
  81.6465027  87.6714619 178.7999115  81.7898803  86.1026479 179.5764420
  81.6763367  84.9531193 177.4087990  81.6659557  86.4767440 176.5367341
  79.5132828  87.1190482 177.4753644  79.4344417  85.5899961 178.3677258
  79.7291578  84.3416438 176.1843392  79.7747044  85.8741868 175.3187975
  77.4158940  84.8721213 176.9805217  77.5351443  84.8380585 175.2085860
  77.4681053  86.3943538 176.0613583  92.0000000  82.6040000 170.8490000
  81.5850000  94.5680000 180.1460000  87.8528435  97.0712258 181.0848018
  86.3236208  97.0803423 181.0848476  85.7589748  95.6583454 181.0839514
  84.2307844  95.6649019 181.0833803  83.6592430  94.2650000 181.0830000
  82.3050000  94.2650000 181.0830000  84.3094269  93.2327992 181.0824242
  81.3980000  95.1690000 178.2880000  81.0269627  95.1686082 179.4214083
  81.0239482  94.5526945 181.0854991  88.2220424  96.5368952 181.9682020
  88.2227372  96.5359623 180.2032715  85.9602267  97.6199011 180.2024328
  85.9591634  97.6199044 181.9673625  86.1251151  95.1144740 181.9629224
  86.1250361  95.1159952 180.2027225  83.8635586  96.1833983 180.1911832
  83.8637875  96.1828719 181.9766810  81.9127631  95.1583881 181.0830000
  90.5310000 104.0060000  68.5660000  91.9807774 111.1072005  69.9921438
  90.4716515 111.0217848  69.9052115  89.9119757 110.1186163  70.9962000
  88.4132477 110.0630210  70.8293451  87.7941405 109.1962373  71.9023042
  86.2878159 109.3281808  71.8277451  85.6700844 108.5270000  70.6790000
  84.1240000 108.5270000  70.6790000  83.5166962 109.9537263  70.6790000
  84.0145752 110.8802788  69.5664628  83.4598467 112.2937891  69.7890727
  83.9673630 113.2572987  68.7210697  83.4154346 114.6684171  68.9418251
  83.9239851 115.6086350  67.8466481  83.3772930 117.0237717  68.0237523
  83.8898686 117.9411607  66.9258111  83.6005855 107.8771111  72.0260708
  83.9194433 108.6950878  73.2704143  83.3773105 108.0554233  74.5448002
  83.8053195 108.9193543  75.7249314  83.2890424 108.3980436  77.0595243
  83.7769724 109.3118103  78.1832741  83.2875095 108.8330681  79.5404484
  83.7753657 109.7440514  80.6543876  83.5691881 107.6563906  69.5126574
  83.9227005 106.1705280  69.4024780  83.5289989 105.2358091  70.5509994
  82.0209551 105.2511187  70.8059279  81.3464240 104.6012166  69.6154070
  79.8380012 104.6719084  69.6240253  79.3578935 103.9763068  68.3525470
  77.8498128 103.9730083  68.2604067  90.0690000 104.2740000  67.6110000
  89.9920455 103.9033397  67.6186543  89.9095611 103.5714972  69.3585043
  92.2759754 111.5086320  70.9678291  92.4161727 110.1052427  69.9024485
  90.1689720 110.6346836  68.9250912  90.0298237 112.0214455  70.0048742
  90.1752239 110.5118512  71.9832884  90.3404698 109.1097144  70.9169043
  88.1563187 109.6777845  69.8425598  87.9998951 111.0810287  70.9003450
  88.1282658 109.5342563  72.8885970  88.1083866 108.1507500  71.7985358
  85.9987068 110.3839578  71.7825596  85.9756052 108.9863389  72.7948530
  85.9903425 107.4839625  70.7283618  85.9843881 108.9294737  69.7112644
  83.7632357 110.4226140  71.6214736  82.4283203 109.8396983  70.6252458
  83.6940002 110.5277926  68.5804638  85.1077742 110.9365951  69.5579587
  83.7639731 112.6535757  70.7801851  82.3635120 112.2642478  69.7766420
  83.6729548 112.8957877  67.7312164  85.0635354 113.2877619  68.7455471
  83.7210479 115.0371915  69.9155016  82.3187292 114.6437877  68.9262742
  83.6275892 115.2218654  66.8653420  85.0200986 115.6332493  67.8683350
  83.6777766 117.4227647  68.9997785  82.2820217 117.0073078  68.0003739
  84.9829208 118.0044951  66.9463196  83.4870697 118.9498999  67.0543585
  83.5868333 117.5768719  65.9383785  84.0550542 106.8859619  72.1071353
  82.5126585 107.7665741  71.9167896  83.4656181 109.6870562  73.2141876
  85.0008946 108.8257973  73.3662741  83.7627371 107.0330534  74.6580741
  82.2824861 107.9910040  74.4975076  83.4425385 109.9443520  75.5754737
  84.9015863 108.9704758  75.7551921  83.6506746 107.3738177  77.2258960
  82.1959449 108.3661222  77.0498867  83.4221845 110.3352742  78.0046315
  84.8724190 109.3478191  78.1801142  83.6417463 107.8121405  79.7281609
  82.1900940 108.8013802  79.5546289  84.8703060 109.7766532  80.6811465
  83.4219239 109.3832630  81.6252081  83.4057895 110.7654461  80.5145654
  83.9820188 108.0872503  68.5963470  82.4839227 107.8082412  69.4959758
  84.9607693 106.0239571  69.1002213  83.4350396 105.8179919  68.4878611
  84.0940450 105.4287473  71.4658266  83.8317210 104.2131249  70.2824305
  81.6465027 106.2744618  70.9509114  81.7898804 104.7056479  71.7274419
  81.6763368 103.5561193  69.5597989  81.6659557 105.0797440  68.6877341
  79.5132828 105.7220481  69.6263643  79.4344417 104.1929961  70.5187257
  79.7291578 102.9446438  68.3353391  79.7747045 104.4771868  67.4697974
  77.4158941 103.4751213  69.1315216  77.5351444 103.4410585  67.3595859
  77.4681053 104.9973538  68.2123582  92.0000000 101.2070000  63.0000000
  81.5850000 113.1710000  72.2970000  87.8528435 115.6742258  73.2358018
  86.3236208 115.6833423  73.2358476  85.7589748 114.2613454  73.2349514
  84.2307844 114.2679019  73.2343803  83.6592430 112.8680000  73.2340000
  82.3050000 112.8680000  73.2340000  84.3094269 111.8357992  73.2334242
  81.3980000 113.7720000  70.4390000  81.0269627 113.7716082  71.5724083
  81.0239482 113.1556945  73.2364991  88.2220424 115.1398952  74.1192020
  88.2227372 115.1389623  72.3542715  85.9602267 116.2229011  72.3534328
  85.9591634 116.2229044  74.1183625  86.1251151 113.7174740  74.1139224
  86.1250361 113.7189952  72.3537225  83.8635586 114.7863983  72.3421832
  83.8637875 114.7858719  74.1276810  81.9127631 113.7613881  73.2340000
  90.5310000 104.0060000  86.5410000  91.9807774 111.1072005  87.9671438
  90.4716515 111.0217848  87.8802115  89.9119757 110.1186163  88.9712000
  88.4132477 110.0630210  88.8043451  87.7941405 109.1962373  89.8773042
  86.2878159 109.3281808  89.8027451  85.6700844 108.5270000  88.6540000
  84.1240000 108.5270000  88.6540000  83.5166962 109.9537263  88.6540000
  84.0145752 110.8802788  87.5414628  83.4598467 112.2937891  87.7640727
  83.9673630 113.2572987  86.6960697  83.4154346 114.6684171  86.9168251
  83.9239851 115.6086350  85.8216481  83.3772930 117.0237717  85.9987523
  83.8898686 117.9411607  84.9008111  83.6005855 107.8771111  90.0010708
  83.9194433 108.6950878  91.2454143  83.3773105 108.0554233  92.5198002
  83.8053195 108.9193543  93.6999314  83.2890424 108.3980436  95.0345243
  83.7769724 109.3118103  96.1582741  83.2875095 108.8330681  97.5154484
  83.7753657 109.7440514  98.6293876  83.5691881 107.6563906  87.4876574
  83.9227005 106.1705280  87.3774780  83.5289989 105.2358091  88.5259994
  82.0209551 105.2511187  88.7809279  81.3464240 104.6012166  87.5904070
  79.8380012 104.6719084  87.5990253  79.3578935 103.9763068  86.3275470
  77.8498128 103.9730083  86.2354067  90.0690000 104.2740000  85.5860000
  89.9920455 103.9033397  85.5936543  89.9095611 103.5714972  87.3335043
  92.2759754 111.5086320  88.9428291  92.4161727 110.1052427  87.8774485
  90.1689720 110.6346836  86.9000912  90.0298237 112.0214455  87.9798742
  90.1752239 110.5118512  89.9582884  90.3404698 109.1097144  88.8919043
  88.1563187 109.6777845  87.8175598  87.9998951 111.0810287  88.8753450
  88.1282658 109.5342563  90.8635970  88.1083866 108.1507500  89.7735358
  85.9987068 110.3839578  89.7575596  85.9756052 108.9863389  90.7698530
  85.9903425 107.4839625  88.7033618  85.9843881 108.9294737  87.6862644
  83.7632357 110.4226140  89.5964736  82.4283203 109.8396983  88.6002458
  83.6940002 110.5277926  86.5554638  85.1077742 110.9365951  87.5329587
  83.7639731 112.6535757  88.7551851  82.3635120 112.2642478  87.7516420
  83.6729548 112.8957877  85.7062164  85.0635354 113.2877619  86.7205471
  83.7210479 115.0371915  87.8905016  82.3187292 114.6437877  86.9012742
  83.6275892 115.2218654  84.8403420  85.0200986 115.6332493  85.8433350
  83.6777766 117.4227647  86.9747785  82.2820217 117.0073078  85.9753739
  84.9829208 118.0044951  84.9213196  83.4870697 118.9498999  85.0293585
  83.5868333 117.5768719  83.9133785  84.0550542 106.8859619  90.0821353
  82.5126585 107.7665741  89.8917896  83.4656181 109.6870562  91.1891876
  85.0008946 108.8257973  91.3412741  83.7627371 107.0330534  92.6330741
  82.2824861 107.9910040  92.4725076  83.4425385 109.9443520  93.5504737
  84.9015863 108.9704758  93.7301921  83.6506746 107.3738177  95.2008960
  82.1959449 108.3661222  95.0248867  83.4221845 110.3352742  95.9796315
  84.8724190 109.3478191  96.1551142  83.6417463 107.8121405  97.7031609
  82.1900940 108.8013802  97.5296289  84.8703060 109.7766532  98.6561465
  83.4219239 109.3832630  99.6002081  83.4057895 110.7654461  98.4895654
  83.9820188 108.0872503  86.5713470  82.4839227 107.8082412  87.4709758
  84.9607693 106.0239571  87.0752213  83.4350396 105.8179919  86.4628611
  84.0940450 105.4287473  89.4408266  83.8317210 104.2131249  88.2574305
  81.6465027 106.2744618  88.9259114  81.7898804 104.7056479  89.7024419
  81.6763368 103.5561193  87.5347989  81.6659557 105.0797440  86.6627341
  79.5132828 105.7220481  87.6013643  79.4344417 104.1929961  88.4937257
  79.7291578 102.9446438  86.3103391  79.7747045 104.4771868  85.4447974
  77.4158941 103.4751213  87.1065216  77.5351444 103.4410585  85.3345859
  77.4681053 104.9973538  86.1873582  92.0000000 101.2070000  80.9750000
  81.5850000 113.1710000  90.2720000  87.8528435 115.6742258  91.2108018
  86.3236208 115.6833423  91.2108476  85.7589748 114.2613454  91.2099514
  84.2307844 114.2679019  91.2093803  83.6592430 112.8680000  91.2090000
  82.3050000 112.8680000  91.2090000  84.3094269 111.8357992  91.2084242
  81.3980000 113.7720000  88.4140000  81.0269627 113.7716082  89.5474083
  81.0239482 113.1556945  91.2114991  88.2220424 115.1398952  92.0942020
  88.2227372 115.1389623  90.3292715  85.9602267 116.2229011  90.3284328
  85.9591634 116.2229044  92.0933625  86.1251151 113.7174740  92.0889224
  86.1250361 113.7189952  90.3287225  83.8635586 114.7863983  90.3171832
  83.8637875 114.7858719  92.1026810  81.9127631 113.7613881  91.2090000
  90.5310000 104.0060000 104.5160000  91.9807774 111.1072005 105.9421438
  90.4716515 111.0217848 105.8552115  89.9119757 110.1186163 106.9462000
  88.4132477 110.0630210 106.7793451  87.7941405 109.1962373 107.8523042
  86.2878159 109.3281808 107.7777451  85.6700844 108.5270000 106.6290000
  84.1240000 108.5270000 106.6290000  83.5166962 109.9537263 106.6290000
  84.0145752 110.8802788 105.5164628  83.4598467 112.2937891 105.7390727
  83.9673630 113.2572987 104.6710697  83.4154346 114.6684171 104.8918251
  83.9239851 115.6086350 103.7966481  83.3772930 117.0237717 103.9737523
  83.8898686 117.9411607 102.8758111  83.6005855 107.8771111 107.9760708
  83.9194433 108.6950878 109.2204143  83.3773105 108.0554233 110.4948002
  83.8053195 108.9193543 111.6749314  83.2890424 108.3980436 113.0095243
  83.7769724 109.3118103 114.1332741  83.2875095 108.8330681 115.4904484
  83.7753657 109.7440514 116.6043876  83.5691881 107.6563906 105.4626574
  83.9227005 106.1705280 105.3524780  83.5289989 105.2358091 106.5009994
  82.0209551 105.2511187 106.7559279  81.3464240 104.6012166 105.5654070
  79.8380012 104.6719084 105.5740253  79.3578935 103.9763068 104.3025470
  77.8498128 103.9730083 104.2104067  90.0690000 104.2740000 103.5610000
  89.9920455 103.9033397 103.5686543  89.9095611 103.5714972 105.3085043
  92.2759754 111.5086320 106.9178291  92.4161727 110.1052427 105.8524485
  90.1689720 110.6346836 104.8750912  90.0298237 112.0214455 105.9548742
  90.1752239 110.5118512 107.9332884  90.3404698 109.1097144 106.8669043
  88.1563187 109.6777845 105.7925598  87.9998951 111.0810287 106.8503450
  88.1282658 109.5342563 108.8385970  88.1083866 108.1507500 107.7485358
  85.9987068 110.3839578 107.7325596  85.9756052 108.9863389 108.7448530
  85.9903425 107.4839625 106.6783618  85.9843881 108.9294737 105.6612644
  83.7632357 110.4226140 107.5714736  82.4283203 109.8396983 106.5752458
  83.6940002 110.5277926 104.5304638  85.1077742 110.9365951 105.5079587
  83.7639731 112.6535757 106.7301851  82.3635120 112.2642478 105.7266420
  83.6729548 112.8957877 103.6812164  85.0635354 113.2877619 104.6955471
  83.7210479 115.0371915 105.8655016  82.3187292 114.6437877 104.8762742
  83.6275892 115.2218654 102.8153420  85.0200986 115.6332493 103.8183350
  83.6777766 117.4227647 104.9497785  82.2820217 117.0073078 103.9503739
  84.9829208 118.0044951 102.8963196  83.4870697 118.9498999 103.0043585
  83.5868333 117.5768719 101.8883785  84.0550542 106.8859619 108.0571353
  82.5126585 107.7665741 107.8667896  83.4656181 109.6870562 109.1641876
  85.0008946 108.8257973 109.3162741  83.7627371 107.0330534 110.6080741
  82.2824861 107.9910040 110.4475076  83.4425385 109.9443520 111.5254737
  84.9015863 108.9704758 111.7051921  83.6506746 107.3738177 113.1758960
  82.1959449 108.3661222 112.9998867  83.4221845 110.3352742 113.9546315
  84.8724190 109.3478191 114.1301142  83.6417463 107.8121405 115.6781609
  82.1900940 108.8013802 115.5046289  84.8703060 109.7766532 116.6311465
  83.4219239 109.3832630 117.5752081  83.4057895 110.7654461 116.4645654
  83.9820188 108.0872503 104.5463470  82.4839227 107.8082412 105.4459758
  84.9607693 106.0239571 105.0502213  83.4350396 105.8179919 104.4378611
  84.0940450 105.4287473 107.4158266  83.8317210 104.2131249 106.2324305
  81.6465027 106.2744618 106.9009114  81.7898804 104.7056479 107.6774419
  81.6763368 103.5561193 105.5097989  81.6659557 105.0797440 104.6377341
  79.5132828 105.7220481 105.5763643  79.4344417 104.1929961 106.4687257
  79.7291578 102.9446438 104.2853391  79.7747045 104.4771868 103.4197974
  77.4158941 103.4751213 105.0815216  77.5351444 103.4410585 103.3095859
  77.4681053 104.9973538 104.1623582  92.0000000 101.2070000  98.9500000
  81.5850000 113.1710000 108.2470000  87.8528435 115.6742258 109.1858018
  86.3236208 115.6833423 109.1858476  85.7589748 114.2613454 109.1849514
  84.2307844 114.2679019 109.1843803  83.6592430 112.8680000 109.1840000
  82.3050000 112.8680000 109.1840000  84.3094269 111.8357992 109.1834242
  81.3980000 113.7720000 106.3890000  81.0269627 113.7716082 107.5224083
  81.0239482 113.1556945 109.1864991  88.2220424 115.1398952 110.0692020
  88.2227372 115.1389623 108.3042715  85.9602267 116.2229011 108.3034328
  85.9591634 116.2229044 110.0683625  86.1251151 113.7174740 110.0639224
  86.1250361 113.7189952 108.3037225  83.8635586 114.7863983 108.2921832
  83.8637875 114.7858719 110.0776810  81.9127631 113.7613881 109.1840000
  90.5310000 104.0060000 122.4900000  91.9807774 111.1072005 123.9161438
  90.4716515 111.0217848 123.8292115  89.9119757 110.1186163 124.9202000
  88.4132477 110.0630210 124.7533451  87.7941405 109.1962373 125.8263042
  86.2878159 109.3281808 125.7517451  85.6700844 108.5270000 124.6030000
  84.1240000 108.5270000 124.6030000  83.5166962 109.9537263 124.6030000
  84.0145752 110.8802788 123.4904628  83.4598467 112.2937891 123.7130727
  83.9673630 113.2572987 122.6450697  83.4154346 114.6684171 122.8658251
  83.9239851 115.6086350 121.7706481  83.3772930 117.0237717 121.9477523
  83.8898686 117.9411607 120.8498111  83.6005855 107.8771111 125.9500708
  83.9194433 108.6950878 127.1944143  83.3773105 108.0554233 128.4688002
  83.8053195 108.9193543 129.6489314  83.2890424 108.3980436 130.9835243
  83.7769724 109.3118103 132.1072741  83.2875095 108.8330681 133.4644484
  83.7753657 109.7440514 134.5783876  83.5691881 107.6563906 123.4366574
  83.9227005 106.1705280 123.3264780  83.5289989 105.2358091 124.4749994
  82.0209551 105.2511187 124.7299279  81.3464240 104.6012166 123.5394070
  79.8380012 104.6719084 123.5480253  79.3578935 103.9763068 122.2765470
  77.8498128 103.9730083 122.1844067  90.0690000 104.2740000 121.5350000
  89.9920455 103.9033397 121.5426543  89.9095611 103.5714972 123.2825043
  92.2759754 111.5086320 124.8918291  92.4161727 110.1052427 123.8264485
  90.1689720 110.6346836 122.8490912  90.0298237 112.0214455 123.9288742
  90.1752239 110.5118512 125.9072884  90.3404698 109.1097144 124.8409043
  88.1563187 109.6777845 123.7665598  87.9998951 111.0810287 124.8243450
  88.1282658 109.5342563 126.8125970  88.1083866 108.1507500 125.7225358
  85.9987068 110.3839578 125.7065596  85.9756052 108.9863389 126.7188530
  85.9903425 107.4839625 124.6523618  85.9843881 108.9294737 123.6352644
  83.7632357 110.4226140 125.5454736  82.4283203 109.8396983 124.5492458
  83.6940002 110.5277926 122.5044638  85.1077742 110.9365951 123.4819587
  83.7639731 112.6535757 124.7041851  82.3635120 112.2642478 123.7006420
  83.6729548 112.8957877 121.6552164  85.0635354 113.2877619 122.6695471
  83.7210479 115.0371915 123.8395016  82.3187292 114.6437877 122.8502742
  83.6275892 115.2218654 120.7893420  85.0200986 115.6332493 121.7923350
  83.6777766 117.4227647 122.9237785  82.2820217 117.0073078 121.9243739
  84.9829208 118.0044951 120.8703196  83.4870697 118.9498999 120.9783585
  83.5868333 117.5768719 119.8623785  84.0550542 106.8859619 126.0311353
  82.5126585 107.7665741 125.8407896  83.4656181 109.6870562 127.1381876
  85.0008946 108.8257973 127.2902741  83.7627371 107.0330534 128.5820741
  82.2824861 107.9910040 128.4215076  83.4425385 109.9443520 129.4994737
  84.9015863 108.9704758 129.6791921  83.6506746 107.3738177 131.1498960
  82.1959449 108.3661222 130.9738867  83.4221845 110.3352742 131.9286315
  84.8724190 109.3478191 132.1041142  83.6417463 107.8121405 133.6521609
  82.1900940 108.8013802 133.4786289  84.8703060 109.7766532 134.6051465
  83.4219239 109.3832630 135.5492081  83.4057895 110.7654461 134.4385654
  83.9820188 108.0872503 122.5203470  82.4839227 107.8082412 123.4199758
  84.9607693 106.0239571 123.0242213  83.4350396 105.8179919 122.4118611
  84.0940450 105.4287473 125.3898266  83.8317210 104.2131249 124.2064305
  81.6465027 106.2744618 124.8749114  81.7898804 104.7056479 125.6514419
  81.6763368 103.5561193 123.4837989  81.6659557 105.0797440 122.6117341
  79.5132828 105.7220481 123.5503643  79.4344417 104.1929961 124.4427257
  79.7291578 102.9446438 122.2593391  79.7747045 104.4771868 121.3937974
  77.4158941 103.4751213 123.0555216  77.5351444 103.4410585 121.2835859
  77.4681053 104.9973538 122.1363582  92.0000000 101.2070000 116.9240000
  81.5850000 113.1710000 126.2210000  87.8528435 115.6742258 127.1598018
  86.3236208 115.6833423 127.1598476  85.7589748 114.2613454 127.1589514
  84.2307844 114.2679019 127.1583803  83.6592430 112.8680000 127.1580000
  82.3050000 112.8680000 127.1580000  84.3094269 111.8357992 127.1574242
  81.3980000 113.7720000 124.3630000  81.0269627 113.7716082 125.4964083
  81.0239482 113.1556945 127.1604991  88.2220424 115.1398952 128.0432020
  88.2227372 115.1389623 126.2782715  85.9602267 116.2229011 126.2774328
  85.9591634 116.2229044 128.0423625  86.1251151 113.7174740 128.0379224
  86.1250361 113.7189952 126.2777225  83.8635586 114.7863983 126.2661832
  83.8637875 114.7858719 128.0516810  81.9127631 113.7613881 127.1580000
  90.5310000 104.0060000 140.4650000  91.9807774 111.1072005 141.8911438
  90.4716515 111.0217848 141.8042115  89.9119757 110.1186163 142.8952000
  88.4132477 110.0630210 142.7283451  87.7941405 109.1962373 143.8013042
  86.2878159 109.3281808 143.7267451  85.6700844 108.5270000 142.5780000
  84.1240000 108.5270000 142.5780000  83.5166962 109.9537263 142.5780000
  84.0145752 110.8802788 141.4654628  83.4598467 112.2937891 141.6880727
  83.9673630 113.2572987 140.6200697  83.4154346 114.6684171 140.8408251
  83.9239851 115.6086350 139.7456481  83.3772930 117.0237717 139.9227523
  83.8898686 117.9411607 138.8248111  83.6005855 107.8771111 143.9250708
  83.9194433 108.6950878 145.1694143  83.3773105 108.0554233 146.4438002
  83.8053195 108.9193543 147.6239314  83.2890424 108.3980436 148.9585243
  83.7769724 109.3118103 150.0822741  83.2875095 108.8330681 151.4394484
  83.7753657 109.7440514 152.5533876  83.5691881 107.6563906 141.4116574
  83.9227005 106.1705280 141.3014780  83.5289989 105.2358091 142.4499994
  82.0209551 105.2511187 142.7049279  81.3464240 104.6012166 141.5144070
  79.8380012 104.6719084 141.5230253  79.3578935 103.9763068 140.2515470
  77.8498128 103.9730083 140.1594067  90.0690000 104.2740000 139.5100000
  89.9920455 103.9033397 139.5176543  89.9095611 103.5714972 141.2575043
  92.2759754 111.5086320 142.8668291  92.4161727 110.1052427 141.8014485
  90.1689720 110.6346836 140.8240912  90.0298237 112.0214455 141.9038742
  90.1752239 110.5118512 143.8822884  90.3404698 109.1097144 142.8159043
  88.1563187 109.6777845 141.7415598  87.9998951 111.0810287 142.7993450
  88.1282658 109.5342563 144.7875970  88.1083866 108.1507500 143.6975358
  85.9987068 110.3839578 143.6815596  85.9756052 108.9863389 144.6938530
  85.9903425 107.4839625 142.6273618  85.9843881 108.9294737 141.6102644
  83.7632357 110.4226140 143.5204736  82.4283203 109.8396983 142.5242458
  83.6940002 110.5277926 140.4794638  85.1077742 110.9365951 141.4569587
  83.7639731 112.6535757 142.6791851  82.3635120 112.2642478 141.6756420
  83.6729548 112.8957877 139.6302164  85.0635354 113.2877619 140.6445471
  83.7210479 115.0371915 141.8145016  82.3187292 114.6437877 140.8252742
  83.6275892 115.2218654 138.7643420  85.0200986 115.6332493 139.7673350
  83.6777766 117.4227647 140.8987785  82.2820217 117.0073078 139.8993739
  84.9829208 118.0044951 138.8453196  83.4870697 118.9498999 138.9533585
  83.5868333 117.5768719 137.8373785  84.0550542 106.8859619 144.0061353
  82.5126585 107.7665741 143.8157896  83.4656181 109.6870562 145.1131876
  85.0008946 108.8257973 145.2652741  83.7627371 107.0330534 146.5570741
  82.2824861 107.9910040 146.3965076  83.4425385 109.9443520 147.4744737
  84.9015863 108.9704758 147.6541921  83.6506746 107.3738177 149.1248960
  82.1959449 108.3661222 148.9488867  83.4221845 110.3352742 149.9036315
  84.8724190 109.3478191 150.0791142  83.6417463 107.8121405 151.6271609
  82.1900940 108.8013802 151.4536289  84.8703060 109.7766532 152.5801465
  83.4219239 109.3832630 153.5242081  83.4057895 110.7654461 152.4135654
  83.9820188 108.0872503 140.4953470  82.4839227 107.8082412 141.3949758
  84.9607693 106.0239571 140.9992213  83.4350396 105.8179919 140.3868611
  84.0940450 105.4287473 143.3648266  83.8317210 104.2131249 142.1814305
  81.6465027 106.2744618 142.8499114  81.7898804 104.7056479 143.6264419
  81.6763368 103.5561193 141.4587989  81.6659557 105.0797440 140.5867341
  79.5132828 105.7220481 141.5253643  79.4344417 104.1929961 142.4177257
  79.7291578 102.9446438 140.2343391  79.7747045 104.4771868 139.3687974
  77.4158941 103.4751213 141.0305216  77.5351444 103.4410585 139.2585859
  77.4681053 104.9973538 140.1113582  92.0000000 101.2070000 134.8990000
  81.5850000 113.1710000 144.1960000  87.8528435 115.6742258 145.1348018
  86.3236208 115.6833423 145.1348476  85.7589748 114.2613454 145.1339514
  84.2307844 114.2679019 145.1333803  83.6592430 112.8680000 145.1330000
  82.3050000 112.8680000 145.1330000  84.3094269 111.8357992 145.1324242
  81.3980000 113.7720000 142.3380000  81.0269627 113.7716082 143.4714083
  81.0239482 113.1556945 145.1354991  88.2220424 115.1398952 146.0182020
  88.2227372 115.1389623 144.2532715  85.9602267 116.2229011 144.2524328
  85.9591634 116.2229044 146.0173625  86.1251151 113.7174740 146.0129224
  86.1250361 113.7189952 144.2527225  83.8635586 114.7863983 144.2411832
  83.8637875 114.7858719 146.0266810  81.9127631 113.7613881 145.1330000
  90.5310000 104.0060000 158.4400000  91.9807774 111.1072005 159.8661438
  90.4716515 111.0217848 159.7792115  89.9119757 110.1186163 160.8702000
  88.4132477 110.0630210 160.7033451  87.7941405 109.1962373 161.7763042
  86.2878159 109.3281808 161.7017451  85.6700844 108.5270000 160.5530000
  84.1240000 108.5270000 160.5530000  83.5166962 109.9537263 160.5530000
  84.0145752 110.8802788 159.4404628  83.4598467 112.2937891 159.6630727
  83.9673630 113.2572987 158.5950697  83.4154346 114.6684171 158.8158251
  83.9239851 115.6086350 157.7206481  83.3772930 117.0237717 157.8977523
  83.8898686 117.9411607 156.7998111  83.6005855 107.8771111 161.9000708
  83.9194433 108.6950878 163.1444143  83.3773105 108.0554233 164.4188002
  83.8053195 108.9193543 165.5989314  83.2890424 108.3980436 166.9335243
  83.7769724 109.3118103 168.0572741  83.2875095 108.8330681 169.4144484
  83.7753657 109.7440514 170.5283876  83.5691881 107.6563906 159.3866574
  83.9227005 106.1705280 159.2764780  83.5289989 105.2358091 160.4249994
  82.0209551 105.2511187 160.6799279  81.3464240 104.6012166 159.4894070
  79.8380012 104.6719084 159.4980253  79.3578935 103.9763068 158.2265470
  77.8498128 103.9730083 158.1344067  90.0690000 104.2740000 157.4850000
  89.9920455 103.9033397 157.4926543  89.9095611 103.5714972 159.2325043
  92.2759754 111.5086320 160.8418291  92.4161727 110.1052427 159.7764485
  90.1689720 110.6346836 158.7990912  90.0298237 112.0214455 159.8788742
  90.1752239 110.5118512 161.8572884  90.3404698 109.1097144 160.7909043
  88.1563187 109.6777845 159.7165598  87.9998951 111.0810287 160.7743450
  88.1282658 109.5342563 162.7625970  88.1083866 108.1507500 161.6725358
  85.9987068 110.3839578 161.6565596  85.9756052 108.9863389 162.6688530
  85.9903425 107.4839625 160.6023618  85.9843881 108.9294737 159.5852644
  83.7632357 110.4226140 161.4954736  82.4283203 109.8396983 160.4992458
  83.6940002 110.5277926 158.4544638  85.1077742 110.9365951 159.4319587
  83.7639731 112.6535757 160.6541851  82.3635120 112.2642478 159.6506420
  83.6729548 112.8957877 157.6052164  85.0635354 113.2877619 158.6195471
  83.7210479 115.0371915 159.7895016  82.3187292 114.6437877 158.8002742
  83.6275892 115.2218654 156.7393420  85.0200986 115.6332493 157.7423350
  83.6777766 117.4227647 158.8737785  82.2820217 117.0073078 157.8743739
  84.9829208 118.0044951 156.8203196  83.4870697 118.9498999 156.9283585
  83.5868333 117.5768719 155.8123785  84.0550542 106.8859619 161.9811353
  82.5126585 107.7665741 161.7907896  83.4656181 109.6870562 163.0881876
  85.0008946 108.8257973 163.2402741  83.7627371 107.0330534 164.5320741
  82.2824861 107.9910040 164.3715076  83.4425385 109.9443520 165.4494737
  84.9015863 108.9704758 165.6291921  83.6506746 107.3738177 167.0998960
  82.1959449 108.3661222 166.9238867  83.4221845 110.3352742 167.8786315
  84.8724190 109.3478191 168.0541142  83.6417463 107.8121405 169.6021609
  82.1900940 108.8013802 169.4286289  84.8703060 109.7766532 170.5551465
  83.4219239 109.3832630 171.4992081  83.4057895 110.7654461 170.3885654
  83.9820188 108.0872503 158.4703470  82.4839227 107.8082412 159.3699758
  84.9607693 106.0239571 158.9742213  83.4350396 105.8179919 158.3618611
  84.0940450 105.4287473 161.3398266  83.8317210 104.2131249 160.1564305
  81.6465027 106.2744618 160.8249114  81.7898804 104.7056479 161.6014419
  81.6763368 103.5561193 159.4337989  81.6659557 105.0797440 158.5617341
  79.5132828 105.7220481 159.5003643  79.4344417 104.1929961 160.3927257
  79.7291578 102.9446438 158.2093391  79.7747045 104.4771868 157.3437974
  77.4158941 103.4751213 159.0055216  77.5351444 103.4410585 157.2335859
  77.4681053 104.9973538 158.0863582  92.0000000 101.2070000 152.8740000
  81.5850000 113.1710000 162.1710000  87.8528435 115.6742258 163.1098018
  86.3236208 115.6833423 163.1098476  85.7589748 114.2613454 163.1089514
  84.2307844 114.2679019 163.1083803  83.6592430 112.8680000 163.1080000
  82.3050000 112.8680000 163.1080000  84.3094269 111.8357992 163.1074242
  81.3980000 113.7720000 160.3130000  81.0269627 113.7716082 161.4464083
  81.0239482 113.1556945 163.1104991  88.2220424 115.1398952 163.9932020
  88.2227372 115.1389623 162.2282715  85.9602267 116.2229011 162.2274328
  85.9591634 116.2229044 163.9923625  86.1251151 113.7174740 163.9879224
  86.1250361 113.7189952 162.2277225  83.8635586 114.7863983 162.2161832
  83.8637875 114.7858719 164.0016810  81.9127631 113.7613881 163.1080000
  90.5310000 104.0060000 176.4150000  91.9807774 111.1072005 177.8411438
  90.4716515 111.0217848 177.7542115  89.9119757 110.1186163 178.8452000
  88.4132477 110.0630210 178.6783451  87.7941405 109.1962373 179.7513042
  86.2878159 109.3281808 179.6767451  85.6700844 108.5270000 178.5280000
  84.1240000 108.5270000 178.5280000  83.5166962 109.9537263 178.5280000
  84.0145752 110.8802788 177.4154628  83.4598467 112.2937891 177.6380727
  83.9673630 113.2572987 176.5700697  83.4154346 114.6684171 176.7908251
  83.9239851 115.6086350 175.6956481  83.3772930 117.0237717 175.8727523
  83.8898686 117.9411607 174.7748111  83.6005855 107.8771111 179.8750708
  83.9194433 108.6950878 181.1194143  83.3773105 108.0554233 182.3938002
  83.8053195 108.9193543 183.5739314  83.2890424 108.3980436 184.9085243
  83.7769724 109.3118103 186.0322741  83.2875095 108.8330681 187.3894484
  83.7753657 109.7440514 188.5033876  83.5691881 107.6563906 177.3616574
  83.9227005 106.1705280 177.2514780  83.5289989 105.2358091 178.3999994
  82.0209551 105.2511187 178.6549279  81.3464240 104.6012166 177.4644070
  79.8380012 104.6719084 177.4730253  79.3578935 103.9763068 176.2015470
  77.8498128 103.9730083 176.1094067  90.0690000 104.2740000 175.4600000
  89.9920455 103.9033397 175.4676543  89.9095611 103.5714972 177.2075043
  92.2759754 111.5086320 178.8168291  92.4161727 110.1052427 177.7514485
  90.1689720 110.6346836 176.7740912  90.0298237 112.0214455 177.8538742
  90.1752239 110.5118512 179.8322884  90.3404698 109.1097144 178.7659043
  88.1563187 109.6777845 177.6915598  87.9998951 111.0810287 178.7493450
  88.1282658 109.5342563 180.7375970  88.1083866 108.1507500 179.6475358
  85.9987068 110.3839578 179.6315596  85.9756052 108.9863389 180.6438530
  85.9903425 107.4839625 178.5773618  85.9843881 108.9294737 177.5602644
  83.7632357 110.4226140 179.4704736  82.4283203 109.8396983 178.4742458
  83.6940002 110.5277926 176.4294638  85.1077742 110.9365951 177.4069587
  83.7639731 112.6535757 178.6291851  82.3635120 112.2642478 177.6256420
  83.6729548 112.8957877 175.5802164  85.0635354 113.2877619 176.5945471
  83.7210479 115.0371915 177.7645016  82.3187292 114.6437877 176.7752742
  83.6275892 115.2218654 174.7143420  85.0200986 115.6332493 175.7173350
  83.6777766 117.4227647 176.8487785  82.2820217 117.0073078 175.8493739
  84.9829208 118.0044951 174.7953196  83.4870697 118.9498999 174.9033585
  83.5868333 117.5768719 173.7873785  84.0550542 106.8859619 179.9561353
  82.5126585 107.7665741 179.7657896  83.4656181 109.6870562 181.0631876
  85.0008946 108.8257973 181.2152741  83.7627371 107.0330534 182.5070741
  82.2824861 107.9910040 182.3465076  83.4425385 109.9443520 183.4244737
  84.9015863 108.9704758 183.6041921  83.6506746 107.3738177 185.0748960
  82.1959449 108.3661222 184.8988867  83.4221845 110.3352742 185.8536315
  84.8724190 109.3478191 186.0291142  83.6417463 107.8121405 187.5771609
  82.1900940 108.8013802 187.4036289  84.8703060 109.7766532 188.5301465
  83.4219239 109.3832630 189.4742081  83.4057895 110.7654461 188.3635654
  83.9820188 108.0872503 176.4453470  82.4839227 107.8082412 177.3449758
  84.9607693 106.0239571 176.9492213  83.4350396 105.8179919 176.3368611
  84.0940450 105.4287473 179.3148266  83.8317210 104.2131249 178.1314305
  81.6465027 106.2744618 178.7999114  81.7898804 104.7056479 179.5764419
  81.6763368 103.5561193 177.4087989  81.6659557 105.0797440 176.5367341
  79.5132828 105.7220481 177.4753643  79.4344417 104.1929961 178.3677257
  79.7291578 102.9446438 176.1843391  79.7747045 104.4771868 175.3187974
  77.4158941 103.4751213 176.9805216  77.5351444 103.4410585 175.2085859
  77.4681053 104.9973538 176.0613582  92.0000000 101.2070000 170.8490000
  81.5850000 113.1710000 180.1460000  87.8528435 115.6742258 181.0848018
  86.3236208 115.6833423 181.0848476  85.7589748 114.2613454 181.0839514
  84.2307844 114.2679019 181.0833803  83.6592430 112.8680000 181.0830000
  82.3050000 112.8680000 181.0830000  84.3094269 111.8357992 181.0824242
  81.3980000 113.7720000 178.2880000  81.0269627 113.7716082 179.4214083
  81.0239482 113.1556945 181.0854991  88.2220424 115.1398952 181.9682020
  88.2227372 115.1389623 180.2032715  85.9602267 116.2229011 180.2024328
  85.9591634 116.2229044 181.9673625  86.1251151 113.7174740 181.9629224
  86.1250361 113.7189952 180.2027225  83.8635586 114.7863983 180.1911832
  83.8637875 114.7858719 181.9766810  81.9127631 113.7613881 181.0830000
  90.5310000 122.6100000  68.5660000  91.9807774 129.7112005  69.9921438
  90.4716515 129.6257848  69.9052115  89.9119757 128.7226163  70.9962000
  88.4132477 128.6670210  70.8293451  87.7941405 127.8002373  71.9023042
  86.2878159 127.9321808  71.8277451  85.6700844 127.1310000  70.6790000
  84.1240000 127.1310000  70.6790000  83.5166962 128.5577263  70.6790000
  84.0145752 129.4842788  69.5664628  83.4598467 130.8977891  69.7890727
  83.9673630 131.8612987  68.7210697  83.4154346 133.2724171  68.9418251
  83.9239851 134.2126350  67.8466481  83.3772930 135.6277717  68.0237523
  83.8898686 136.5451607  66.9258111  83.6005855 126.4811111  72.0260708
  83.9194433 127.2990878  73.2704143  83.3773105 126.6594233  74.5448002
  83.8053195 127.5233543  75.7249314  83.2890424 127.0020436  77.0595243
  83.7769724 127.9158103  78.1832741  83.2875095 127.4370681  79.5404484
  83.7753657 128.3480514  80.6543876  83.5691881 126.2603906  69.5126574
  83.9227005 124.7745280  69.4024780  83.5289989 123.8398091  70.5509994
  82.0209551 123.8551187  70.8059279  81.3464240 123.2052166  69.6154070
  79.8380012 123.2759084  69.6240253  79.3578935 122.5803068  68.3525470
  77.8498128 122.5770083  68.2604067  90.0690000 122.8780000  67.6110000
  89.9920455 122.5073397  67.6186543  89.9095611 122.1754972  69.3585043
  92.2759754 130.1126320  70.9678291  92.4161727 128.7092427  69.9024485
  90.1689720 129.2386836  68.9250912  90.0298237 130.6254455  70.0048742
  90.1752239 129.1158512  71.9832884  90.3404698 127.7137144  70.9169043
  88.1563187 128.2817845  69.8425598  87.9998951 129.6850287  70.9003450
  88.1282658 128.1382563  72.8885970  88.1083866 126.7547500  71.7985358
  85.9987068 128.9879578  71.7825596  85.9756052 127.5903389  72.7948530
  85.9903425 126.0879625  70.7283618  85.9843881 127.5334737  69.7112644
  83.7632357 129.0266140  71.6214736  82.4283203 128.4436983  70.6252458
  83.6940002 129.1317926  68.5804638  85.1077742 129.5405951  69.5579587
  83.7639731 131.2575757  70.7801851  82.3635120 130.8682478  69.7766420
  83.6729548 131.4997877  67.7312164  85.0635354 131.8917619  68.7455471
  83.7210479 133.6411915  69.9155016  82.3187292 133.2477877  68.9262742
  83.6275892 133.8258654  66.8653420  85.0200986 134.2372493  67.8683350
  83.6777766 136.0267647  68.9997785  82.2820217 135.6113078  68.0003739
  84.9829208 136.6084951  66.9463196  83.4870697 137.5538999  67.0543585
  83.5868333 136.1808719  65.9383785  84.0550542 125.4899619  72.1071353
  82.5126585 126.3705741  71.9167896  83.4656181 128.2910562  73.2141876
  85.0008946 127.4297973  73.3662741  83.7627371 125.6370534  74.6580741
  82.2824861 126.5950040  74.4975076  83.4425385 128.5483520  75.5754737
  84.9015863 127.5744758  75.7551921  83.6506746 125.9778177  77.2258960
  82.1959449 126.9701222  77.0498867  83.4221845 128.9392742  78.0046315
  84.8724190 127.9518191  78.1801142  83.6417463 126.4161405  79.7281609
  82.1900940 127.4053802  79.5546289  84.8703060 128.3806532  80.6811465
  83.4219239 127.9872630  81.6252081  83.4057895 129.3694461  80.5145654
  83.9820188 126.6912503  68.5963470  82.4839227 126.4122412  69.4959758
  84.9607693 124.6279571  69.1002213  83.4350396 124.4219919  68.4878611
  84.0940450 124.0327473  71.4658266  83.8317210 122.8171249  70.2824305
  81.6465027 124.8784618  70.9509114  81.7898804 123.3096479  71.7274419
  81.6763368 122.1601193  69.5597989  81.6659557 123.6837440  68.6877341
  79.5132828 124.3260481  69.6263643  79.4344417 122.7969961  70.5187257
  79.7291578 121.5486438  68.3353391  79.7747045 123.0811868  67.4697974
  77.4158941 122.0791213  69.1315216  77.5351444 122.0450585  67.3595859
  77.4681053 123.6013538  68.2123582  92.0000000 119.8110000  63.0000000
  81.5850000 131.7750000  72.2970000  87.8528435 134.2782258  73.2358018
  86.3236208 134.2873423  73.2358476  85.7589748 132.8653454  73.2349514
  84.2307844 132.8719019  73.2343803  83.6592430 131.4720000  73.2340000
  82.3050000 131.4720000  73.2340000  84.3094269 130.4397992  73.2334242
  81.3980000 132.3760000  70.4390000  81.0269627 132.3756082  71.5724083
  81.0239482 131.7596945  73.2364991  88.2220424 133.7438952  74.1192020
  88.2227372 133.7429623  72.3542715  85.9602267 134.8269011  72.3534328
  85.9591634 134.8269044  74.1183625  86.1251151 132.3214740  74.1139224
  86.1250361 132.3229952  72.3537225  83.8635586 133.3903983  72.3421832
  83.8637875 133.3898719  74.1276810  81.9127631 132.3653881  73.2340000
  90.5310000 122.6100000  86.5410000  91.9807774 129.7112005  87.9671438
  90.4716515 129.6257848  87.8802115  89.9119757 128.7226163  88.9712000
  88.4132477 128.6670210  88.8043451  87.7941405 127.8002373  89.8773042
  86.2878159 127.9321808  89.8027451  85.6700844 127.1310000  88.6540000
  84.1240000 127.1310000  88.6540000  83.5166962 128.5577263  88.6540000
  84.0145752 129.4842788  87.5414628  83.4598467 130.8977891  87.7640727
  83.9673630 131.8612987  86.6960697  83.4154346 133.2724171  86.9168251
  83.9239851 134.2126350  85.8216481  83.3772930 135.6277717  85.9987523
  83.8898686 136.5451607  84.9008111  83.6005855 126.4811111  90.0010708
  83.9194433 127.2990878  91.2454143  83.3773105 126.6594233  92.5198002
  83.8053195 127.5233543  93.6999314  83.2890424 127.0020436  95.0345243
  83.7769724 127.9158103  96.1582741  83.2875095 127.4370681  97.5154484
  83.7753657 128.3480514  98.6293876  83.5691881 126.2603906  87.4876574
  83.9227005 124.7745280  87.3774780  83.5289989 123.8398091  88.5259994
  82.0209551 123.8551187  88.7809279  81.3464240 123.2052166  87.5904070
  79.8380012 123.2759084  87.5990253  79.3578935 122.5803068  86.3275470
  77.8498128 122.5770083  86.2354067  90.0690000 122.8780000  85.5860000
  89.9920455 122.5073397  85.5936543  89.9095611 122.1754972  87.3335043
  92.2759754 130.1126320  88.9428291  92.4161727 128.7092427  87.8774485
  90.1689720 129.2386836  86.9000912  90.0298237 130.6254455  87.9798742
  90.1752239 129.1158512  89.9582884  90.3404698 127.7137144  88.8919043
  88.1563187 128.2817845  87.8175598  87.9998951 129.6850287  88.8753450
  88.1282658 128.1382563  90.8635970  88.1083866 126.7547500  89.7735358
  85.9987068 128.9879578  89.7575596  85.9756052 127.5903389  90.7698530
  85.9903425 126.0879625  88.7033618  85.9843881 127.5334737  87.6862644
  83.7632357 129.0266140  89.5964736  82.4283203 128.4436983  88.6002458
  83.6940002 129.1317926  86.5554638  85.1077742 129.5405951  87.5329587
  83.7639731 131.2575757  88.7551851  82.3635120 130.8682478  87.7516420
  83.6729548 131.4997877  85.7062164  85.0635354 131.8917619  86.7205471
  83.7210479 133.6411915  87.8905016  82.3187292 133.2477877  86.9012742
  83.6275892 133.8258654  84.8403420  85.0200986 134.2372493  85.8433350
  83.6777766 136.0267647  86.9747785  82.2820217 135.6113078  85.9753739
  84.9829208 136.6084951  84.9213196  83.4870697 137.5538999  85.0293585
  83.5868333 136.1808719  83.9133785  84.0550542 125.4899619  90.0821353
  82.5126585 126.3705741  89.8917896  83.4656181 128.2910562  91.1891876
  85.0008946 127.4297973  91.3412741  83.7627371 125.6370534  92.6330741
  82.2824861 126.5950040  92.4725076  83.4425385 128.5483520  93.5504737
  84.9015863 127.5744758  93.7301921  83.6506746 125.9778177  95.2008960
  82.1959449 126.9701222  95.0248867  83.4221845 128.9392742  95.9796315
  84.8724190 127.9518191  96.1551142  83.6417463 126.4161405  97.7031609
  82.1900940 127.4053802  97.5296289  84.8703060 128.3806532  98.6561465
  83.4219239 127.9872630  99.6002081  83.4057895 129.3694461  98.4895654
  83.9820188 126.6912503  86.5713470  82.4839227 126.4122412  87.4709758
  84.9607693 124.6279571  87.0752213  83.4350396 124.4219919  86.4628611
  84.0940450 124.0327473  89.4408266  83.8317210 122.8171249  88.2574305
  81.6465027 124.8784618  88.9259114  81.7898804 123.3096479  89.7024419
  81.6763368 122.1601193  87.5347989  81.6659557 123.6837440  86.6627341
  79.5132828 124.3260481  87.6013643  79.4344417 122.7969961  88.4937257
  79.7291578 121.5486438  86.3103391  79.7747045 123.0811868  85.4447974
  77.4158941 122.0791213  87.1065216  77.5351444 122.0450585  85.3345859
  77.4681053 123.6013538  86.1873582  92.0000000 119.8110000  80.9750000
  81.5850000 131.7750000  90.2720000  87.8528435 134.2782258  91.2108018
  86.3236208 134.2873423  91.2108476  85.7589748 132.8653454  91.2099514
  84.2307844 132.8719019  91.2093803  83.6592430 131.4720000  91.2090000
  82.3050000 131.4720000  91.2090000  84.3094269 130.4397992  91.2084242
  81.3980000 132.3760000  88.4140000  81.0269627 132.3756082  89.5474083
  81.0239482 131.7596945  91.2114991  88.2220424 133.7438952  92.0942020
  88.2227372 133.7429623  90.3292715  85.9602267 134.8269011  90.3284328
  85.9591634 134.8269044  92.0933625  86.1251151 132.3214740  92.0889224
  86.1250361 132.3229952  90.3287225  83.8635586 133.3903983  90.3171832
  83.8637875 133.3898719  92.1026810  81.9127631 132.3653881  91.2090000
  90.5310000 122.6100000 104.5160000  91.9807774 129.7112005 105.9421438
  90.4716515 129.6257848 105.8552115  89.9119757 128.7226163 106.9462000
  88.4132477 128.6670210 106.7793451  87.7941405 127.8002373 107.8523042
  86.2878159 127.9321808 107.7777451  85.6700844 127.1310000 106.6290000
  84.1240000 127.1310000 106.6290000  83.5166962 128.5577263 106.6290000
  84.0145752 129.4842788 105.5164628  83.4598467 130.8977891 105.7390727
  83.9673630 131.8612987 104.6710697  83.4154346 133.2724171 104.8918251
  83.9239851 134.2126350 103.7966481  83.3772930 135.6277717 103.9737523
  83.8898686 136.5451607 102.8758111  83.6005855 126.4811111 107.9760708
  83.9194433 127.2990878 109.2204143  83.3773105 126.6594233 110.4948002
  83.8053195 127.5233543 111.6749314  83.2890424 127.0020436 113.0095243
  83.7769724 127.9158103 114.1332741  83.2875095 127.4370681 115.4904484
  83.7753657 128.3480514 116.6043876  83.5691881 126.2603906 105.4626574
  83.9227005 124.7745280 105.3524780  83.5289989 123.8398091 106.5009994
  82.0209551 123.8551187 106.7559279  81.3464240 123.2052166 105.5654070
  79.8380012 123.2759084 105.5740253  79.3578935 122.5803068 104.3025470
  77.8498128 122.5770083 104.2104067  90.0690000 122.8780000 103.5610000
  89.9920455 122.5073397 103.5686543  89.9095611 122.1754972 105.3085043
  92.2759754 130.1126320 106.9178291  92.4161727 128.7092427 105.8524485
  90.1689720 129.2386836 104.8750912  90.0298237 130.6254455 105.9548742
  90.1752239 129.1158512 107.9332884  90.3404698 127.7137144 106.8669043
  88.1563187 128.2817845 105.7925598  87.9998951 129.6850287 106.8503450
  88.1282658 128.1382563 108.8385970  88.1083866 126.7547500 107.7485358
  85.9987068 128.9879578 107.7325596  85.9756052 127.5903389 108.7448530
  85.9903425 126.0879625 106.6783618  85.9843881 127.5334737 105.6612644
  83.7632357 129.0266140 107.5714736  82.4283203 128.4436983 106.5752458
  83.6940002 129.1317926 104.5304638  85.1077742 129.5405951 105.5079587
  83.7639731 131.2575757 106.7301851  82.3635120 130.8682478 105.7266420
  83.6729548 131.4997877 103.6812164  85.0635354 131.8917619 104.6955471
  83.7210479 133.6411915 105.8655016  82.3187292 133.2477877 104.8762742
  83.6275892 133.8258654 102.8153420  85.0200986 134.2372493 103.8183350
  83.6777766 136.0267647 104.9497785  82.2820217 135.6113078 103.9503739
  84.9829208 136.6084951 102.8963196  83.4870697 137.5538999 103.0043585
  83.5868333 136.1808719 101.8883785  84.0550542 125.4899619 108.0571353
  82.5126585 126.3705741 107.8667896  83.4656181 128.2910562 109.1641876
  85.0008946 127.4297973 109.3162741  83.7627371 125.6370534 110.6080741
  82.2824861 126.5950040 110.4475076  83.4425385 128.5483520 111.5254737
  84.9015863 127.5744758 111.7051921  83.6506746 125.9778177 113.1758960
  82.1959449 126.9701222 112.9998867  83.4221845 128.9392742 113.9546315
  84.8724190 127.9518191 114.1301142  83.6417463 126.4161405 115.6781609
  82.1900940 127.4053802 115.5046289  84.8703060 128.3806532 116.6311465
  83.4219239 127.9872630 117.5752081  83.4057895 129.3694461 116.4645654
  83.9820188 126.6912503 104.5463470  82.4839227 126.4122412 105.4459758
  84.9607693 124.6279571 105.0502213  83.4350396 124.4219919 104.4378611
  84.0940450 124.0327473 107.4158266  83.8317210 122.8171249 106.2324305
  81.6465027 124.8784618 106.9009114  81.7898804 123.3096479 107.6774419
  81.6763368 122.1601193 105.5097989  81.6659557 123.6837440 104.6377341
  79.5132828 124.3260481 105.5763643  79.4344417 122.7969961 106.4687257
  79.7291578 121.5486438 104.2853391  79.7747045 123.0811868 103.4197974
  77.4158941 122.0791213 105.0815216  77.5351444 122.0450585 103.3095859
  77.4681053 123.6013538 104.1623582  92.0000000 119.8110000  98.9500000
  81.5850000 131.7750000 108.2470000  87.8528435 134.2782258 109.1858018
  86.3236208 134.2873423 109.1858476  85.7589748 132.8653454 109.1849514
  84.2307844 132.8719019 109.1843803  83.6592430 131.4720000 109.1840000
  82.3050000 131.4720000 109.1840000  84.3094269 130.4397992 109.1834242
  81.3980000 132.3760000 106.3890000  81.0269627 132.3756082 107.5224083
  81.0239482 131.7596945 109.1864991  88.2220424 133.7438952 110.0692020
  88.2227372 133.7429623 108.3042715  85.9602267 134.8269011 108.3034328
  85.9591634 134.8269044 110.0683625  86.1251151 132.3214740 110.0639224
  86.1250361 132.3229952 108.3037225  83.8635586 133.3903983 108.2921832
  83.8637875 133.3898719 110.0776810  81.9127631 132.3653881 109.1840000
  90.5310000 122.6100000 122.4900000  91.9807774 129.7112005 123.9161438
  90.4716515 129.6257848 123.8292115  89.9119757 128.7226163 124.9202000
  88.4132477 128.6670210 124.7533451  87.7941405 127.8002373 125.8263042
  86.2878159 127.9321808 125.7517451  85.6700844 127.1310000 124.6030000
  84.1240000 127.1310000 124.6030000  83.5166962 128.5577263 124.6030000
  84.0145752 129.4842788 123.4904628  83.4598467 130.8977891 123.7130727
  83.9673630 131.8612987 122.6450697  83.4154346 133.2724171 122.8658251
  83.9239851 134.2126350 121.7706481  83.3772930 135.6277717 121.9477523
  83.8898686 136.5451607 120.8498111  83.6005855 126.4811111 125.9500708
  83.9194433 127.2990878 127.1944143  83.3773105 126.6594233 128.4688002
  83.8053195 127.5233543 129.6489314  83.2890424 127.0020436 130.9835243
  83.7769724 127.9158103 132.1072741  83.2875095 127.4370681 133.4644484
  83.7753657 128.3480514 134.5783876  83.5691881 126.2603906 123.4366574
  83.9227005 124.7745280 123.3264780  83.5289989 123.8398091 124.4749994
  82.0209551 123.8551187 124.7299279  81.3464240 123.2052166 123.5394070
  79.8380012 123.2759084 123.5480253  79.3578935 122.5803068 122.2765470
  77.8498128 122.5770083 122.1844067  90.0690000 122.8780000 121.5350000
  89.9920455 122.5073397 121.5426543  89.9095611 122.1754972 123.2825043
  92.2759754 130.1126320 124.8918291  92.4161727 128.7092427 123.8264485
  90.1689720 129.2386836 122.8490912  90.0298237 130.6254455 123.9288742
  90.1752239 129.1158512 125.9072884  90.3404698 127.7137144 124.8409043
  88.1563187 128.2817845 123.7665598  87.9998951 129.6850287 124.8243450
  88.1282658 128.1382563 126.8125970  88.1083866 126.7547500 125.7225358
  85.9987068 128.9879578 125.7065596  85.9756052 127.5903389 126.7188530
  85.9903425 126.0879625 124.6523618  85.9843881 127.5334737 123.6352644
  83.7632357 129.0266140 125.5454736  82.4283203 128.4436983 124.5492458
  83.6940002 129.1317926 122.5044638  85.1077742 129.5405951 123.4819587
  83.7639731 131.2575757 124.7041851  82.3635120 130.8682478 123.7006420
  83.6729548 131.4997877 121.6552164  85.0635354 131.8917619 122.6695471
  83.7210479 133.6411915 123.8395016  82.3187292 133.2477877 122.8502742
  83.6275892 133.8258654 120.7893420  85.0200986 134.2372493 121.7923350
  83.6777766 136.0267647 122.9237785  82.2820217 135.6113078 121.9243739
  84.9829208 136.6084951 120.8703196  83.4870697 137.5538999 120.9783585
  83.5868333 136.1808719 119.8623785  84.0550542 125.4899619 126.0311353
  82.5126585 126.3705741 125.8407896  83.4656181 128.2910562 127.1381876
  85.0008946 127.4297973 127.2902741  83.7627371 125.6370534 128.5820741
  82.2824861 126.5950040 128.4215076  83.4425385 128.5483520 129.4994737
  84.9015863 127.5744758 129.6791921  83.6506746 125.9778177 131.1498960
  82.1959449 126.9701222 130.9738867  83.4221845 128.9392742 131.9286315
  84.8724190 127.9518191 132.1041142  83.6417463 126.4161405 133.6521609
  82.1900940 127.4053802 133.4786289  84.8703060 128.3806532 134.6051465
  83.4219239 127.9872630 135.5492081  83.4057895 129.3694461 134.4385654
  83.9820188 126.6912503 122.5203470  82.4839227 126.4122412 123.4199758
  84.9607693 124.6279571 123.0242213  83.4350396 124.4219919 122.4118611
  84.0940450 124.0327473 125.3898266  83.8317210 122.8171249 124.2064305
  81.6465027 124.8784618 124.8749114  81.7898804 123.3096479 125.6514419
  81.6763368 122.1601193 123.4837989  81.6659557 123.6837440 122.6117341
  79.5132828 124.3260481 123.5503643  79.4344417 122.7969961 124.4427257
  79.7291578 121.5486438 122.2593391  79.7747045 123.0811868 121.3937974
  77.4158941 122.0791213 123.0555216  77.5351444 122.0450585 121.2835859
  77.4681053 123.6013538 122.1363582  92.0000000 119.8110000 116.9240000
  81.5850000 131.7750000 126.2210000  87.8528435 134.2782258 127.1598018
  86.3236208 134.2873423 127.1598476  85.7589748 132.8653454 127.1589514
  84.2307844 132.8719019 127.1583803  83.6592430 131.4720000 127.1580000
  82.3050000 131.4720000 127.1580000  84.3094269 130.4397992 127.1574242
  81.3980000 132.3760000 124.3630000  81.0269627 132.3756082 125.4964083
  81.0239482 131.7596945 127.1604991  88.2220424 133.7438952 128.0432020
  88.2227372 133.7429623 126.2782715  85.9602267 134.8269011 126.2774328
  85.9591634 134.8269044 128.0423625  86.1251151 132.3214740 128.0379224
  86.1250361 132.3229952 126.2777225  83.8635586 133.3903983 126.2661832
  83.8637875 133.3898719 128.0516810  81.9127631 132.3653881 127.1580000
  90.5310000 122.6100000 140.4650000  91.9807774 129.7112005 141.8911438
  90.4716515 129.6257848 141.8042115  89.9119757 128.7226163 142.8952000
  88.4132477 128.6670210 142.7283451  87.7941405 127.8002373 143.8013042
  86.2878159 127.9321808 143.7267451  85.6700844 127.1310000 142.5780000
  84.1240000 127.1310000 142.5780000  83.5166962 128.5577263 142.5780000
  84.0145752 129.4842788 141.4654628  83.4598467 130.8977891 141.6880727
  83.9673630 131.8612987 140.6200697  83.4154346 133.2724171 140.8408251
  83.9239851 134.2126350 139.7456481  83.3772930 135.6277717 139.9227523
  83.8898686 136.5451607 138.8248111  83.6005855 126.4811111 143.9250708
  83.9194433 127.2990878 145.1694143  83.3773105 126.6594233 146.4438002
  83.8053195 127.5233543 147.6239314  83.2890424 127.0020436 148.9585243
  83.7769724 127.9158103 150.0822741  83.2875095 127.4370681 151.4394484
  83.7753657 128.3480514 152.5533876  83.5691881 126.2603906 141.4116574
  83.9227005 124.7745280 141.3014780  83.5289989 123.8398091 142.4499994
  82.0209551 123.8551187 142.7049279  81.3464240 123.2052166 141.5144070
  79.8380012 123.2759084 141.5230253  79.3578935 122.5803068 140.2515470
  77.8498128 122.5770083 140.1594067  90.0690000 122.8780000 139.5100000
  89.9920455 122.5073397 139.5176543  89.9095611 122.1754972 141.2575043
  92.2759754 130.1126320 142.8668291  92.4161727 128.7092427 141.8014485
  90.1689720 129.2386836 140.8240912  90.0298237 130.6254455 141.9038742
  90.1752239 129.1158512 143.8822884  90.3404698 127.7137144 142.8159043
  88.1563187 128.2817845 141.7415598  87.9998951 129.6850287 142.7993450
  88.1282658 128.1382563 144.7875970  88.1083866 126.7547500 143.6975358
  85.9987068 128.9879578 143.6815596  85.9756052 127.5903389 144.6938530
  85.9903425 126.0879625 142.6273618  85.9843881 127.5334737 141.6102644
  83.7632357 129.0266140 143.5204736  82.4283203 128.4436983 142.5242458
  83.6940002 129.1317926 140.4794638  85.1077742 129.5405951 141.4569587
  83.7639731 131.2575757 142.6791851  82.3635120 130.8682478 141.6756420
  83.6729548 131.4997877 139.6302164  85.0635354 131.8917619 140.6445471
  83.7210479 133.6411915 141.8145016  82.3187292 133.2477877 140.8252742
  83.6275892 133.8258654 138.7643420  85.0200986 134.2372493 139.7673350
  83.6777766 136.0267647 140.8987785  82.2820217 135.6113078 139.8993739
  84.9829208 136.6084951 138.8453196  83.4870697 137.5538999 138.9533585
  83.5868333 136.1808719 137.8373785  84.0550542 125.4899619 144.0061353
  82.5126585 126.3705741 143.8157896  83.4656181 128.2910562 145.1131876
  85.0008946 127.4297973 145.2652741  83.7627371 125.6370534 146.5570741
  82.2824861 126.5950040 146.3965076  83.4425385 128.5483520 147.4744737
  84.9015863 127.5744758 147.6541921  83.6506746 125.9778177 149.1248960
  82.1959449 126.9701222 148.9488867  83.4221845 128.9392742 149.9036315
  84.8724190 127.9518191 150.0791142  83.6417463 126.4161405 151.6271609
  82.1900940 127.4053802 151.4536289  84.8703060 128.3806532 152.5801465
  83.4219239 127.9872630 153.5242081  83.4057895 129.3694461 152.4135654
  83.9820188 126.6912503 140.4953470  82.4839227 126.4122412 141.3949758
  84.9607693 124.6279571 140.9992213  83.4350396 124.4219919 140.3868611
  84.0940450 124.0327473 143.3648266  83.8317210 122.8171249 142.1814305
  81.6465027 124.8784618 142.8499114  81.7898804 123.3096479 143.6264419
  81.6763368 122.1601193 141.4587989  81.6659557 123.6837440 140.5867341
  79.5132828 124.3260481 141.5253643  79.4344417 122.7969961 142.4177257
  79.7291578 121.5486438 140.2343391  79.7747045 123.0811868 139.3687974
  77.4158941 122.0791213 141.0305216  77.5351444 122.0450585 139.2585859
  77.4681053 123.6013538 140.1113582  92.0000000 119.8110000 134.8990000
  81.5850000 131.7750000 144.1960000  87.8528435 134.2782258 145.1348018
  86.3236208 134.2873423 145.1348476  85.7589748 132.8653454 145.1339514
  84.2307844 132.8719019 145.1333803  83.6592430 131.4720000 145.1330000
  82.3050000 131.4720000 145.1330000  84.3094269 130.4397992 145.1324242
  81.3980000 132.3760000 142.3380000  81.0269627 132.3756082 143.4714083
  81.0239482 131.7596945 145.1354991  88.2220424 133.7438952 146.0182020
  88.2227372 133.7429623 144.2532715  85.9602267 134.8269011 144.2524328
  85.9591634 134.8269044 146.0173625  86.1251151 132.3214740 146.0129224
  86.1250361 132.3229952 144.2527225  83.8635586 133.3903983 144.2411832
  83.8637875 133.3898719 146.0266810  81.9127631 132.3653881 145.1330000
  90.5310000 122.6100000 158.4400000  91.9807774 129.7112005 159.8661438
  90.4716515 129.6257848 159.7792115  89.9119757 128.7226163 160.8702000
  88.4132477 128.6670210 160.7033451  87.7941405 127.8002373 161.7763042
  86.2878159 127.9321808 161.7017451  85.6700844 127.1310000 160.5530000
  84.1240000 127.1310000 160.5530000  83.5166962 128.5577263 160.5530000
  84.0145752 129.4842788 159.4404628  83.4598467 130.8977891 159.6630727
  83.9673630 131.8612987 158.5950697  83.4154346 133.2724171 158.8158251
  83.9239851 134.2126350 157.7206481  83.3772930 135.6277717 157.8977523
  83.8898686 136.5451607 156.7998111  83.6005855 126.4811111 161.9000708
  83.9194433 127.2990878 163.1444143  83.3773105 126.6594233 164.4188002
  83.8053195 127.5233543 165.5989314  83.2890424 127.0020436 166.9335243
  83.7769724 127.9158103 168.0572741  83.2875095 127.4370681 169.4144484
  83.7753657 128.3480514 170.5283876  83.5691881 126.2603906 159.3866574
  83.9227005 124.7745280 159.2764780  83.5289989 123.8398091 160.4249994
  82.0209551 123.8551187 160.6799279  81.3464240 123.2052166 159.4894070
  79.8380012 123.2759084 159.4980253  79.3578935 122.5803068 158.2265470
  77.8498128 122.5770083 158.1344067  90.0690000 122.8780000 157.4850000
  89.9920455 122.5073397 157.4926543  89.9095611 122.1754972 159.2325043
  92.2759754 130.1126320 160.8418291  92.4161727 128.7092427 159.7764485
  90.1689720 129.2386836 158.7990912  90.0298237 130.6254455 159.8788742
  90.1752239 129.1158512 161.8572884  90.3404698 127.7137144 160.7909043
  88.1563187 128.2817845 159.7165598  87.9998951 129.6850287 160.7743450
  88.1282658 128.1382563 162.7625970  88.1083866 126.7547500 161.6725358
  85.9987068 128.9879578 161.6565596  85.9756052 127.5903389 162.6688530
  85.9903425 126.0879625 160.6023618  85.9843881 127.5334737 159.5852644
  83.7632357 129.0266140 161.4954736  82.4283203 128.4436983 160.4992458
  83.6940002 129.1317926 158.4544638  85.1077742 129.5405951 159.4319587
  83.7639731 131.2575757 160.6541851  82.3635120 130.8682478 159.6506420
  83.6729548 131.4997877 157.6052164  85.0635354 131.8917619 158.6195471
  83.7210479 133.6411915 159.7895016  82.3187292 133.2477877 158.8002742
  83.6275892 133.8258654 156.7393420  85.0200986 134.2372493 157.7423350
  83.6777766 136.0267647 158.8737785  82.2820217 135.6113078 157.8743739
  84.9829208 136.6084951 156.8203196  83.4870697 137.5538999 156.9283585
  83.5868333 136.1808719 155.8123785  84.0550542 125.4899619 161.9811353
  82.5126585 126.3705741 161.7907896  83.4656181 128.2910562 163.0881876
  85.0008946 127.4297973 163.2402741  83.7627371 125.6370534 164.5320741
  82.2824861 126.5950040 164.3715076  83.4425385 128.5483520 165.4494737
  84.9015863 127.5744758 165.6291921  83.6506746 125.9778177 167.0998960
  82.1959449 126.9701222 166.9238867  83.4221845 128.9392742 167.8786315
  84.8724190 127.9518191 168.0541142  83.6417463 126.4161405 169.6021609
  82.1900940 127.4053802 169.4286289  84.8703060 128.3806532 170.5551465
  83.4219239 127.9872630 171.4992081  83.4057895 129.3694461 170.3885654
  83.9820188 126.6912503 158.4703470  82.4839227 126.4122412 159.3699758
  84.9607693 124.6279571 158.9742213  83.4350396 124.4219919 158.3618611
  84.0940450 124.0327473 161.3398266  83.8317210 122.8171249 160.1564305
  81.6465027 124.8784618 160.8249114  81.7898804 123.3096479 161.6014419
  81.6763368 122.1601193 159.4337989  81.6659557 123.6837440 158.5617341
  79.5132828 124.3260481 159.5003643  79.4344417 122.7969961 160.3927257
  79.7291578 121.5486438 158.2093391  79.7747045 123.0811868 157.3437974
  77.4158941 122.0791213 159.0055216  77.5351444 122.0450585 157.2335859
  77.4681053 123.6013538 158.0863582  92.0000000 119.8110000 152.8740000
  81.5850000 131.7750000 162.1710000  87.8528435 134.2782258 163.1098018
  86.3236208 134.2873423 163.1098476  85.7589748 132.8653454 163.1089514
  84.2307844 132.8719019 163.1083803  83.6592430 131.4720000 163.1080000
  82.3050000 131.4720000 163.1080000  84.3094269 130.4397992 163.1074242
  81.3980000 132.3760000 160.3130000  81.0269627 132.3756082 161.4464083
  81.0239482 131.7596945 163.1104991  88.2220424 133.7438952 163.9932020
  88.2227372 133.7429623 162.2282715  85.9602267 134.8269011 162.2274328
  85.9591634 134.8269044 163.9923625  86.1251151 132.3214740 163.9879224
  86.1250361 132.3229952 162.2277225  83.8635586 133.3903983 162.2161832
  83.8637875 133.3898719 164.0016810  81.9127631 132.3653881 163.1080000
  90.5310000 122.6100000 176.4150000  91.9807774 129.7112005 177.8411438
  90.4716515 129.6257848 177.7542115  89.9119757 128.7226163 178.8452000
  88.4132477 128.6670210 178.6783451  87.7941405 127.8002373 179.7513042
  86.2878159 127.9321808 179.6767451  85.6700844 127.1310000 178.5280000
  84.1240000 127.1310000 178.5280000  83.5166962 128.5577263 178.5280000
  84.0145752 129.4842788 177.4154628  83.4598467 130.8977891 177.6380727
  83.9673630 131.8612987 176.5700697  83.4154346 133.2724171 176.7908251
  83.9239851 134.2126350 175.6956481  83.3772930 135.6277717 175.8727523
  83.8898686 136.5451607 174.7748111  83.6005855 126.4811111 179.8750708
  83.9194433 127.2990878 181.1194143  83.3773105 126.6594233 182.3938002
  83.8053195 127.5233543 183.5739314  83.2890424 127.0020436 184.9085243
  83.7769724 127.9158103 186.0322741  83.2875095 127.4370681 187.3894484
  83.7753657 128.3480514 188.5033876  83.5691881 126.2603906 177.3616574
  83.9227005 124.7745280 177.2514780  83.5289989 123.8398091 178.3999994
  82.0209551 123.8551187 178.6549279  81.3464240 123.2052166 177.4644070
  79.8380012 123.2759084 177.4730253  79.3578935 122.5803068 176.2015470
  77.8498128 122.5770083 176.1094067  90.0690000 122.8780000 175.4600000
  89.9920455 122.5073397 175.4676543  89.9095611 122.1754972 177.2075043
  92.2759754 130.1126320 178.8168291  92.4161727 128.7092427 177.7514485
  90.1689720 129.2386836 176.7740912  90.0298237 130.6254455 177.8538742
  90.1752239 129.1158512 179.8322884  90.3404698 127.7137144 178.7659043
  88.1563187 128.2817845 177.6915598  87.9998951 129.6850287 178.7493450
  88.1282658 128.1382563 180.7375970  88.1083866 126.7547500 179.6475358
  85.9987068 128.9879578 179.6315596  85.9756052 127.5903389 180.6438530
  85.9903425 126.0879625 178.5773618  85.9843881 127.5334737 177.5602644
  83.7632357 129.0266140 179.4704736  82.4283203 128.4436983 178.4742458
  83.6940002 129.1317926 176.4294638  85.1077742 129.5405951 177.4069587
  83.7639731 131.2575757 178.6291851  82.3635120 130.8682478 177.6256420
  83.6729548 131.4997877 175.5802164  85.0635354 131.8917619 176.5945471
  83.7210479 133.6411915 177.7645016  82.3187292 133.2477877 176.7752742
  83.6275892 133.8258654 174.7143420  85.0200986 134.2372493 175.7173350
  83.6777766 136.0267647 176.8487785  82.2820217 135.6113078 175.8493739
  84.9829208 136.6084951 174.7953196  83.4870697 137.5538999 174.9033585
  83.5868333 136.1808719 173.7873785  84.0550542 125.4899619 179.9561353
  82.5126585 126.3705741 179.7657896  83.4656181 128.2910562 181.0631876
  85.0008946 127.4297973 181.2152741  83.7627371 125.6370534 182.5070741
  82.2824861 126.5950040 182.3465076  83.4425385 128.5483520 183.4244737
  84.9015863 127.5744758 183.6041921  83.6506746 125.9778177 185.0748960
  82.1959449 126.9701222 184.8988867  83.4221845 128.9392742 185.8536315
  84.8724190 127.9518191 186.0291142  83.6417463 126.4161405 187.5771609
  82.1900940 127.4053802 187.4036289  84.8703060 128.3806532 188.5301465
  83.4219239 127.9872630 189.4742081  83.4057895 129.3694461 188.3635654
  83.9820188 126.6912503 176.4453470  82.4839227 126.4122412 177.3449758
  84.9607693 124.6279571 176.9492213  83.4350396 124.4219919 176.3368611
  84.0940450 124.0327473 179.3148266  83.8317210 122.8171249 178.1314305
  81.6465027 124.8784618 178.7999114  81.7898804 123.3096479 179.5764419
  81.6763368 122.1601193 177.4087989  81.6659557 123.6837440 176.5367341
  79.5132828 124.3260481 177.4753643  79.4344417 122.7969961 178.3677257
  79.7291578 121.5486438 176.1843391  79.7747045 123.0811868 175.3187974
  77.4158941 122.0791213 176.9805216  77.5351444 122.0450585 175.2085859
  77.4681053 123.6013538 176.0613582  92.0000000 119.8110000 170.8490000
  81.5850000 131.7750000 180.1460000  87.8528435 134.2782258 181.0848018
  86.3236208 134.2873423 181.0848476  85.7589748 132.8653454 181.0839514
  84.2307844 132.8719019 181.0833803  83.6592430 131.4720000 181.0830000
  82.3050000 131.4720000 181.0830000  84.3094269 130.4397992 181.0824242
  81.3980000 132.3760000 178.2880000  81.0269627 132.3756082 179.4214083
  81.0239482 131.7596945 181.0854991  88.2220424 133.7438952 181.9682020
  88.2227372 133.7429623 180.2032715  85.9602267 134.8269011 180.2024328
  85.9591634 134.8269044 181.9673625  86.1251151 132.3214740 181.9629224
  86.1250361 132.3229952 180.2027225  83.8635586 133.3903983 180.1911832
  83.8637875 133.3898719 181.9766810  81.9127631 132.3653881 181.0830000
  90.5310000 141.2130000  68.5660000  91.9807774 148.3142005  69.9921438
  90.4716515 148.2287848  69.9052115  89.9119757 147.3256163  70.9962000
  88.4132477 147.2700210  70.8293451  87.7941405 146.4032373  71.9023042
  86.2878159 146.5351808  71.8277451  85.6700844 145.7340000  70.6790000
  84.1240000 145.7340000  70.6790000  83.5166962 147.1607263  70.6790000
  84.0145752 148.0872788  69.5664628  83.4598467 149.5007891  69.7890727
  83.9673630 150.4642987  68.7210697  83.4154346 151.8754171  68.9418251
  83.9239851 152.8156350  67.8466481  83.3772930 154.2307717  68.0237523
  83.8898686 155.1481607  66.9258111  83.6005855 145.0841111  72.0260708
  83.9194433 145.9020878  73.2704143  83.3773105 145.2624233  74.5448002
  83.8053195 146.1263543  75.7249314  83.2890424 145.6050436  77.0595243
  83.7769724 146.5188103  78.1832741  83.2875095 146.0400681  79.5404484
  83.7753657 146.9510514  80.6543876  83.5691881 144.8633906  69.5126574
  83.9227005 143.3775280  69.4024780  83.5289989 142.4428091  70.5509994
  82.0209551 142.4581187  70.8059279  81.3464240 141.8082166  69.6154070
  79.8380012 141.8789084  69.6240253  79.3578935 141.1833068  68.3525470
  77.8498128 141.1800083  68.2604067  90.0690000 141.4810000  67.6110000
  89.9920455 141.1103397  67.6186543  89.9095611 140.7784972  69.3585043
  92.2759754 148.7156320  70.9678291  92.4161727 147.3122427  69.9024485
  90.1689720 147.8416836  68.9250912  90.0298237 149.2284455  70.0048742
  90.1752239 147.7188512  71.9832884  90.3404698 146.3167144  70.9169043
  88.1563187 146.8847845  69.8425598  87.9998951 148.2880287  70.9003450
  88.1282658 146.7412563  72.8885970  88.1083866 145.3577500  71.7985358
  85.9987068 147.5909578  71.7825596  85.9756052 146.1933389  72.7948530
  85.9903425 144.6909625  70.7283618  85.9843881 146.1364737  69.7112644
  83.7632357 147.6296140  71.6214736  82.4283203 147.0466983  70.6252458
  83.6940002 147.7347926  68.5804638  85.1077742 148.1435951  69.5579587
  83.7639731 149.8605757  70.7801851  82.3635120 149.4712478  69.7766420
  83.6729548 150.1027877  67.7312164  85.0635354 150.4947619  68.7455471
  83.7210479 152.2441915  69.9155016  82.3187292 151.8507877  68.9262742
  83.6275892 152.4288654  66.8653420  85.0200986 152.8402493  67.8683350
  83.6777766 154.6297647  68.9997785  82.2820217 154.2143078  68.0003739
  84.9829208 155.2114951  66.9463196  83.4870697 156.1568999  67.0543585
  83.5868333 154.7838719  65.9383785  84.0550542 144.0929619  72.1071353
  82.5126585 144.9735741  71.9167896  83.4656181 146.8940562  73.2141876
  85.0008946 146.0327973  73.3662741  83.7627371 144.2400534  74.6580741
  82.2824861 145.1980040  74.4975076  83.4425385 147.1513520  75.5754737
  84.9015863 146.1774758  75.7551921  83.6506746 144.5808177  77.2258960
  82.1959449 145.5731222  77.0498867  83.4221845 147.5422742  78.0046315
  84.8724190 146.5548191  78.1801142  83.6417463 145.0191405  79.7281609
  82.1900940 146.0083802  79.5546289  84.8703060 146.9836532  80.6811465
  83.4219239 146.5902630  81.6252081  83.4057895 147.9724461  80.5145654
  83.9820188 145.2942503  68.5963470  82.4839227 145.0152412  69.4959758
  84.9607693 143.2309571  69.1002213  83.4350396 143.0249919  68.4878611
  84.0940450 142.6357473  71.4658266  83.8317210 141.4201249  70.2824305
  81.6465027 143.4814618  70.9509114  81.7898804 141.9126479  71.7274419
  81.6763368 140.7631193  69.5597989  81.6659557 142.2867440  68.6877341
  79.5132828 142.9290481  69.6263643  79.4344417 141.3999961  70.5187257
  79.7291578 140.1516438  68.3353391  79.7747045 141.6841868  67.4697974
  77.4158941 140.6821213  69.1315216  77.5351444 140.6480585  67.3595859
  77.4681053 142.2043538  68.2123582  92.0000000 138.4140000  63.0000000
  81.5850000 150.3780000  72.2970000  87.8528435 152.8812258  73.2358018
  86.3236208 152.8903423  73.2358476  85.7589748 151.4683454  73.2349514
  84.2307844 151.4749019  73.2343803  83.6592430 150.0750000  73.2340000
  82.3050000 150.0750000  73.2340000  84.3094269 149.0427992  73.2334242
  81.3980000 150.9790000  70.4390000  81.0269627 150.9786082  71.5724083
  81.0239482 150.3626945  73.2364991  88.2220424 152.3468952  74.1192020
  88.2227372 152.3459623  72.3542715  85.9602267 153.4299011  72.3534328
  85.9591634 153.4299044  74.1183625  86.1251151 150.9244740  74.1139224
  86.1250361 150.9259952  72.3537225  83.8635586 151.9933983  72.3421832
  83.8637875 151.9928719  74.1276810  81.9127631 150.9683881  73.2340000
  90.5310000 141.2130000  86.5410000  91.9807774 148.3142005  87.9671438
  90.4716515 148.2287848  87.8802115  89.9119757 147.3256163  88.9712000
  88.4132477 147.2700210  88.8043451  87.7941405 146.4032373  89.8773042
  86.2878159 146.5351808  89.8027451  85.6700844 145.7340000  88.6540000
  84.1240000 145.7340000  88.6540000  83.5166962 147.1607263  88.6540000
  84.0145752 148.0872788  87.5414628  83.4598467 149.5007891  87.7640727
  83.9673630 150.4642987  86.6960697  83.4154346 151.8754171  86.9168251
  83.9239851 152.8156350  85.8216481  83.3772930 154.2307717  85.9987523
  83.8898686 155.1481607  84.9008111  83.6005855 145.0841111  90.0010708
  83.9194433 145.9020878  91.2454143  83.3773105 145.2624233  92.5198002
  83.8053195 146.1263543  93.6999314  83.2890424 145.6050436  95.0345243
  83.7769724 146.5188103  96.1582741  83.2875095 146.0400681  97.5154484
  83.7753657 146.9510514  98.6293876  83.5691881 144.8633906  87.4876574
  83.9227005 143.3775280  87.3774780  83.5289989 142.4428091  88.5259994
  82.0209551 142.4581187  88.7809279  81.3464240 141.8082166  87.5904070
  79.8380012 141.8789084  87.5990253  79.3578935 141.1833068  86.3275470
  77.8498128 141.1800083  86.2354067  90.0690000 141.4810000  85.5860000
  89.9920455 141.1103397  85.5936543  89.9095611 140.7784972  87.3335043
  92.2759754 148.7156320  88.9428291  92.4161727 147.3122427  87.8774485
  90.1689720 147.8416836  86.9000912  90.0298237 149.2284455  87.9798742
  90.1752239 147.7188512  89.9582884  90.3404698 146.3167144  88.8919043
  88.1563187 146.8847845  87.8175598  87.9998951 148.2880287  88.8753450
  88.1282658 146.7412563  90.8635970  88.1083866 145.3577500  89.7735358
  85.9987068 147.5909578  89.7575596  85.9756052 146.1933389  90.7698530
  85.9903425 144.6909625  88.7033618  85.9843881 146.1364737  87.6862644
  83.7632357 147.6296140  89.5964736  82.4283203 147.0466983  88.6002458
  83.6940002 147.7347926  86.5554638  85.1077742 148.1435951  87.5329587
  83.7639731 149.8605757  88.7551851  82.3635120 149.4712478  87.7516420
  83.6729548 150.1027877  85.7062164  85.0635354 150.4947619  86.7205471
  83.7210479 152.2441915  87.8905016  82.3187292 151.8507877  86.9012742
  83.6275892 152.4288654  84.8403420  85.0200986 152.8402493  85.8433350
  83.6777766 154.6297647  86.9747785  82.2820217 154.2143078  85.9753739
  84.9829208 155.2114951  84.9213196  83.4870697 156.1568999  85.0293585
  83.5868333 154.7838719  83.9133785  84.0550542 144.0929619  90.0821353
  82.5126585 144.9735741  89.8917896  83.4656181 146.8940562  91.1891876
  85.0008946 146.0327973  91.3412741  83.7627371 144.2400534  92.6330741
  82.2824861 145.1980040  92.4725076  83.4425385 147.1513520  93.5504737
  84.9015863 146.1774758  93.7301921  83.6506746 144.5808177  95.2008960
  82.1959449 145.5731222  95.0248867  83.4221845 147.5422742  95.9796315
  84.8724190 146.5548191  96.1551142  83.6417463 145.0191405  97.7031609
  82.1900940 146.0083802  97.5296289  84.8703060 146.9836532  98.6561465
  83.4219239 146.5902630  99.6002081  83.4057895 147.9724461  98.4895654
  83.9820188 145.2942503  86.5713470  82.4839227 145.0152412  87.4709758
  84.9607693 143.2309571  87.0752213  83.4350396 143.0249919  86.4628611
  84.0940450 142.6357473  89.4408266  83.8317210 141.4201249  88.2574305
  81.6465027 143.4814618  88.9259114  81.7898804 141.9126479  89.7024419
  81.6763368 140.7631193  87.5347989  81.6659557 142.2867440  86.6627341
  79.5132828 142.9290481  87.6013643  79.4344417 141.3999961  88.4937257
  79.7291578 140.1516438  86.3103391  79.7747045 141.6841868  85.4447974
  77.4158941 140.6821213  87.1065216  77.5351444 140.6480585  85.3345859
  77.4681053 142.2043538  86.1873582  92.0000000 138.4140000  80.9750000
  81.5850000 150.3780000  90.2720000  87.8528435 152.8812258  91.2108018
  86.3236208 152.8903423  91.2108476  85.7589748 151.4683454  91.2099514
  84.2307844 151.4749019  91.2093803  83.6592430 150.0750000  91.2090000
  82.3050000 150.0750000  91.2090000  84.3094269 149.0427992  91.2084242
  81.3980000 150.9790000  88.4140000  81.0269627 150.9786082  89.5474083
  81.0239482 150.3626945  91.2114991  88.2220424 152.3468952  92.0942020
  88.2227372 152.3459623  90.3292715  85.9602267 153.4299011  90.3284328
  85.9591634 153.4299044  92.0933625  86.1251151 150.9244740  92.0889224
  86.1250361 150.9259952  90.3287225  83.8635586 151.9933983  90.3171832
  83.8637875 151.9928719  92.1026810  81.9127631 150.9683881  91.2090000
  90.5310000 141.2130000 104.5160000  91.9807774 148.3142005 105.9421438
  90.4716515 148.2287848 105.8552115  89.9119757 147.3256163 106.9462000
  88.4132477 147.2700210 106.7793451  87.7941405 146.4032373 107.8523042
  86.2878159 146.5351808 107.7777451  85.6700844 145.7340000 106.6290000
  84.1240000 145.7340000 106.6290000  83.5166962 147.1607263 106.6290000
  84.0145752 148.0872788 105.5164628  83.4598467 149.5007891 105.7390727
  83.9673630 150.4642987 104.6710697  83.4154346 151.8754171 104.8918251
  83.9239851 152.8156350 103.7966481  83.3772930 154.2307717 103.9737523
  83.8898686 155.1481607 102.8758111  83.6005855 145.0841111 107.9760708
  83.9194433 145.9020878 109.2204143  83.3773105 145.2624233 110.4948002
  83.8053195 146.1263543 111.6749314  83.2890424 145.6050436 113.0095243
  83.7769724 146.5188103 114.1332741  83.2875095 146.0400681 115.4904484
  83.7753657 146.9510514 116.6043876  83.5691881 144.8633906 105.4626574
  83.9227005 143.3775280 105.3524780  83.5289989 142.4428091 106.5009994
  82.0209551 142.4581187 106.7559279  81.3464240 141.8082166 105.5654070
  79.8380012 141.8789084 105.5740253  79.3578935 141.1833068 104.3025470
  77.8498128 141.1800083 104.2104067  90.0690000 141.4810000 103.5610000
  89.9920455 141.1103397 103.5686543  89.9095611 140.7784972 105.3085043
  92.2759754 148.7156320 106.9178291  92.4161727 147.3122427 105.8524485
  90.1689720 147.8416836 104.8750912  90.0298237 149.2284455 105.9548742
  90.1752239 147.7188512 107.9332884  90.3404698 146.3167144 106.8669043
  88.1563187 146.8847845 105.7925598  87.9998951 148.2880287 106.8503450
  88.1282658 146.7412563 108.8385970  88.1083866 145.3577500 107.7485358
  85.9987068 147.5909578 107.7325596  85.9756052 146.1933389 108.7448530
  85.9903425 144.6909625 106.6783618  85.9843881 146.1364737 105.6612644
  83.7632357 147.6296140 107.5714736  82.4283203 147.0466983 106.5752458
  83.6940002 147.7347926 104.5304638  85.1077742 148.1435951 105.5079587
  83.7639731 149.8605757 106.7301851  82.3635120 149.4712478 105.7266420
  83.6729548 150.1027877 103.6812164  85.0635354 150.4947619 104.6955471
  83.7210479 152.2441915 105.8655016  82.3187292 151.8507877 104.8762742
  83.6275892 152.4288654 102.8153420  85.0200986 152.8402493 103.8183350
  83.6777766 154.6297647 104.9497785  82.2820217 154.2143078 103.9503739
  84.9829208 155.2114951 102.8963196  83.4870697 156.1568999 103.0043585
  83.5868333 154.7838719 101.8883785  84.0550542 144.0929619 108.0571353
  82.5126585 144.9735741 107.8667896  83.4656181 146.8940562 109.1641876
  85.0008946 146.0327973 109.3162741  83.7627371 144.2400534 110.6080741
  82.2824861 145.1980040 110.4475076  83.4425385 147.1513520 111.5254737
  84.9015863 146.1774758 111.7051921  83.6506746 144.5808177 113.1758960
  82.1959449 145.5731222 112.9998867  83.4221845 147.5422742 113.9546315
  84.8724190 146.5548191 114.1301142  83.6417463 145.0191405 115.6781609
  82.1900940 146.0083802 115.5046289  84.8703060 146.9836532 116.6311465
  83.4219239 146.5902630 117.5752081  83.4057895 147.9724461 116.4645654
  83.9820188 145.2942503 104.5463470  82.4839227 145.0152412 105.4459758
  84.9607693 143.2309571 105.0502213  83.4350396 143.0249919 104.4378611
  84.0940450 142.6357473 107.4158266  83.8317210 141.4201249 106.2324305
  81.6465027 143.4814618 106.9009114  81.7898804 141.9126479 107.6774419
  81.6763368 140.7631193 105.5097989  81.6659557 142.2867440 104.6377341
  79.5132828 142.9290481 105.5763643  79.4344417 141.3999961 106.4687257
  79.7291578 140.1516438 104.2853391  79.7747045 141.6841868 103.4197974
  77.4158941 140.6821213 105.0815216  77.5351444 140.6480585 103.3095859
  77.4681053 142.2043538 104.1623582  92.0000000 138.4140000  98.9500000
  81.5850000 150.3780000 108.2470000  87.8528435 152.8812258 109.1858018
  86.3236208 152.8903423 109.1858476  85.7589748 151.4683454 109.1849514
  84.2307844 151.4749019 109.1843803  83.6592430 150.0750000 109.1840000
  82.3050000 150.0750000 109.1840000  84.3094269 149.0427992 109.1834242
  81.3980000 150.9790000 106.3890000  81.0269627 150.9786082 107.5224083
  81.0239482 150.3626945 109.1864991  88.2220424 152.3468952 110.0692020
  88.2227372 152.3459623 108.3042715  85.9602267 153.4299011 108.3034328
  85.9591634 153.4299044 110.0683625  86.1251151 150.9244740 110.0639224
  86.1250361 150.9259952 108.3037225  83.8635586 151.9933983 108.2921832
  83.8637875 151.9928719 110.0776810  81.9127631 150.9683881 109.1840000
  90.5310000 141.2130000 122.4900000  91.9807774 148.3142005 123.9161438
  90.4716515 148.2287848 123.8292115  89.9119757 147.3256163 124.9202000
  88.4132477 147.2700210 124.7533451  87.7941405 146.4032373 125.8263042
  86.2878159 146.5351808 125.7517451  85.6700844 145.7340000 124.6030000
  84.1240000 145.7340000 124.6030000  83.5166962 147.1607263 124.6030000
  84.0145752 148.0872788 123.4904628  83.4598467 149.5007891 123.7130727
  83.9673630 150.4642987 122.6450697  83.4154346 151.8754171 122.8658251
  83.9239851 152.8156350 121.7706481  83.3772930 154.2307717 121.9477523
  83.8898686 155.1481607 120.8498111  83.6005855 145.0841111 125.9500708
  83.9194433 145.9020878 127.1944143  83.3773105 145.2624233 128.4688002
  83.8053195 146.1263543 129.6489314  83.2890424 145.6050436 130.9835243
  83.7769724 146.5188103 132.1072741  83.2875095 146.0400681 133.4644484
  83.7753657 146.9510514 134.5783876  83.5691881 144.8633906 123.4366574
  83.9227005 143.3775280 123.3264780  83.5289989 142.4428091 124.4749994
  82.0209551 142.4581187 124.7299279  81.3464240 141.8082166 123.5394070
  79.8380012 141.8789084 123.5480253  79.3578935 141.1833068 122.2765470
  77.8498128 141.1800083 122.1844067  90.0690000 141.4810000 121.5350000
  89.9920455 141.1103397 121.5426543  89.9095611 140.7784972 123.2825043
  92.2759754 148.7156320 124.8918291  92.4161727 147.3122427 123.8264485
  90.1689720 147.8416836 122.8490912  90.0298237 149.2284455 123.9288742
  90.1752239 147.7188512 125.9072884  90.3404698 146.3167144 124.8409043
  88.1563187 146.8847845 123.7665598  87.9998951 148.2880287 124.8243450
  88.1282658 146.7412563 126.8125970  88.1083866 145.3577500 125.7225358
  85.9987068 147.5909578 125.7065596  85.9756052 146.1933389 126.7188530
  85.9903425 144.6909625 124.6523618  85.9843881 146.1364737 123.6352644
  83.7632357 147.6296140 125.5454736  82.4283203 147.0466983 124.5492458
  83.6940002 147.7347926 122.5044638  85.1077742 148.1435951 123.4819587
  83.7639731 149.8605757 124.7041851  82.3635120 149.4712478 123.7006420
  83.6729548 150.1027877 121.6552164  85.0635354 150.4947619 122.6695471
  83.7210479 152.2441915 123.8395016  82.3187292 151.8507877 122.8502742
  83.6275892 152.4288654 120.7893420  85.0200986 152.8402493 121.7923350
  83.6777766 154.6297647 122.9237785  82.2820217 154.2143078 121.9243739
  84.9829208 155.2114951 120.8703196  83.4870697 156.1568999 120.9783585
  83.5868333 154.7838719 119.8623785  84.0550542 144.0929619 126.0311353
  82.5126585 144.9735741 125.8407896  83.4656181 146.8940562 127.1381876
  85.0008946 146.0327973 127.2902741  83.7627371 144.2400534 128.5820741
  82.2824861 145.1980040 128.4215076  83.4425385 147.1513520 129.4994737
  84.9015863 146.1774758 129.6791921  83.6506746 144.5808177 131.1498960
  82.1959449 145.5731222 130.9738867  83.4221845 147.5422742 131.9286315
  84.8724190 146.5548191 132.1041142  83.6417463 145.0191405 133.6521609
  82.1900940 146.0083802 133.4786289  84.8703060 146.9836532 134.6051465
  83.4219239 146.5902630 135.5492081  83.4057895 147.9724461 134.4385654
  83.9820188 145.2942503 122.5203470  82.4839227 145.0152412 123.4199758
  84.9607693 143.2309571 123.0242213  83.4350396 143.0249919 122.4118611
  84.0940450 142.6357473 125.3898266  83.8317210 141.4201249 124.2064305
  81.6465027 143.4814618 124.8749114  81.7898804 141.9126479 125.6514419
  81.6763368 140.7631193 123.4837989  81.6659557 142.2867440 122.6117341
  79.5132828 142.9290481 123.5503643  79.4344417 141.3999961 124.4427257
  79.7291578 140.1516438 122.2593391  79.7747045 141.6841868 121.3937974
  77.4158941 140.6821213 123.0555216  77.5351444 140.6480585 121.2835859
  77.4681053 142.2043538 122.1363582  92.0000000 138.4140000 116.9240000
  81.5850000 150.3780000 126.2210000  87.8528435 152.8812258 127.1598018
  86.3236208 152.8903423 127.1598476  85.7589748 151.4683454 127.1589514
  84.2307844 151.4749019 127.1583803  83.6592430 150.0750000 127.1580000
  82.3050000 150.0750000 127.1580000  84.3094269 149.0427992 127.1574242
  81.3980000 150.9790000 124.3630000  81.0269627 150.9786082 125.4964083
  81.0239482 150.3626945 127.1604991  88.2220424 152.3468952 128.0432020
  88.2227372 152.3459623 126.2782715  85.9602267 153.4299011 126.2774328
  85.9591634 153.4299044 128.0423625  86.1251151 150.9244740 128.0379224
  86.1250361 150.9259952 126.2777225  83.8635586 151.9933983 126.2661832
  83.8637875 151.9928719 128.0516810  81.9127631 150.9683881 127.1580000
  90.5310000 141.2130000 140.4650000  91.9807774 148.3142005 141.8911438
  90.4716515 148.2287848 141.8042115  89.9119757 147.3256163 142.8952000
  88.4132477 147.2700210 142.7283451  87.7941405 146.4032373 143.8013042
  86.2878159 146.5351808 143.7267451  85.6700844 145.7340000 142.5780000
  84.1240000 145.7340000 142.5780000  83.5166962 147.1607263 142.5780000
  84.0145752 148.0872788 141.4654628  83.4598467 149.5007891 141.6880727
  83.9673630 150.4642987 140.6200697  83.4154346 151.8754171 140.8408251
  83.9239851 152.8156350 139.7456481  83.3772930 154.2307717 139.9227523
  83.8898686 155.1481607 138.8248111  83.6005855 145.0841111 143.9250708
  83.9194433 145.9020878 145.1694143  83.3773105 145.2624233 146.4438002
  83.8053195 146.1263543 147.6239314  83.2890424 145.6050436 148.9585243
  83.7769724 146.5188103 150.0822741  83.2875095 146.0400681 151.4394484
  83.7753657 146.9510514 152.5533876  83.5691881 144.8633906 141.4116574
  83.9227005 143.3775280 141.3014780  83.5289989 142.4428091 142.4499994
  82.0209551 142.4581187 142.7049279  81.3464240 141.8082166 141.5144070
  79.8380012 141.8789084 141.5230253  79.3578935 141.1833068 140.2515470
  77.8498128 141.1800083 140.1594067  90.0690000 141.4810000 139.5100000
  89.9920455 141.1103397 139.5176543  89.9095611 140.7784972 141.2575043
  92.2759754 148.7156320 142.8668291  92.4161727 147.3122427 141.8014485
  90.1689720 147.8416836 140.8240912  90.0298237 149.2284455 141.9038742
  90.1752239 147.7188512 143.8822884  90.3404698 146.3167144 142.8159043
  88.1563187 146.8847845 141.7415598  87.9998951 148.2880287 142.7993450
  88.1282658 146.7412563 144.7875970  88.1083866 145.3577500 143.6975358
  85.9987068 147.5909578 143.6815596  85.9756052 146.1933389 144.6938530
  85.9903425 144.6909625 142.6273618  85.9843881 146.1364737 141.6102644
  83.7632357 147.6296140 143.5204736  82.4283203 147.0466983 142.5242458
  83.6940002 147.7347926 140.4794638  85.1077742 148.1435951 141.4569587
  83.7639731 149.8605757 142.6791851  82.3635120 149.4712478 141.6756420
  83.6729548 150.1027877 139.6302164  85.0635354 150.4947619 140.6445471
  83.7210479 152.2441915 141.8145016  82.3187292 151.8507877 140.8252742
  83.6275892 152.4288654 138.7643420  85.0200986 152.8402493 139.7673350
  83.6777766 154.6297647 140.8987785  82.2820217 154.2143078 139.8993739
  84.9829208 155.2114951 138.8453196  83.4870697 156.1568999 138.9533585
  83.5868333 154.7838719 137.8373785  84.0550542 144.0929619 144.0061353
  82.5126585 144.9735741 143.8157896  83.4656181 146.8940562 145.1131876
  85.0008946 146.0327973 145.2652741  83.7627371 144.2400534 146.5570741
  82.2824861 145.1980040 146.3965076  83.4425385 147.1513520 147.4744737
  84.9015863 146.1774758 147.6541921  83.6506746 144.5808177 149.1248960
  82.1959449 145.5731222 148.9488867  83.4221845 147.5422742 149.9036315
  84.8724190 146.5548191 150.0791142  83.6417463 145.0191405 151.6271609
  82.1900940 146.0083802 151.4536289  84.8703060 146.9836532 152.5801465
  83.4219239 146.5902630 153.5242081  83.4057895 147.9724461 152.4135654
  83.9820188 145.2942503 140.4953470  82.4839227 145.0152412 141.3949758
  84.9607693 143.2309571 140.9992213  83.4350396 143.0249919 140.3868611
  84.0940450 142.6357473 143.3648266  83.8317210 141.4201249 142.1814305
  81.6465027 143.4814618 142.8499114  81.7898804 141.9126479 143.6264419
  81.6763368 140.7631193 141.4587989  81.6659557 142.2867440 140.5867341
  79.5132828 142.9290481 141.5253643  79.4344417 141.3999961 142.4177257
  79.7291578 140.1516438 140.2343391  79.7747045 141.6841868 139.3687974
  77.4158941 140.6821213 141.0305216  77.5351444 140.6480585 139.2585859
  77.4681053 142.2043538 140.1113582  92.0000000 138.4140000 134.8990000
  81.5850000 150.3780000 144.1960000  87.8528435 152.8812258 145.1348018
  86.3236208 152.8903423 145.1348476  85.7589748 151.4683454 145.1339514
  84.2307844 151.4749019 145.1333803  83.6592430 150.0750000 145.1330000
  82.3050000 150.0750000 145.1330000  84.3094269 149.0427992 145.1324242
  81.3980000 150.9790000 142.3380000  81.0269627 150.9786082 143.4714083
  81.0239482 150.3626945 145.1354991  88.2220424 152.3468952 146.0182020
  88.2227372 152.3459623 144.2532715  85.9602267 153.4299011 144.2524328
  85.9591634 153.4299044 146.0173625  86.1251151 150.9244740 146.0129224
  86.1250361 150.9259952 144.2527225  83.8635586 151.9933983 144.2411832
  83.8637875 151.9928719 146.0266810  81.9127631 150.9683881 145.1330000
  90.5310000 141.2130000 158.4400000  91.9807774 148.3142005 159.8661438
  90.4716515 148.2287848 159.7792115  89.9119757 147.3256163 160.8702000
  88.4132477 147.2700210 160.7033451  87.7941405 146.4032373 161.7763042
  86.2878159 146.5351808 161.7017451  85.6700844 145.7340000 160.5530000
  84.1240000 145.7340000 160.5530000  83.5166962 147.1607263 160.5530000
  84.0145752 148.0872788 159.4404628  83.4598467 149.5007891 159.6630727
  83.9673630 150.4642987 158.5950697  83.4154346 151.8754171 158.8158251
  83.9239851 152.8156350 157.7206481  83.3772930 154.2307717 157.8977523
  83.8898686 155.1481607 156.7998111  83.6005855 145.0841111 161.9000708
  83.9194433 145.9020878 163.1444143  83.3773105 145.2624233 164.4188002
  83.8053195 146.1263543 165.5989314  83.2890424 145.6050436 166.9335243
  83.7769724 146.5188103 168.0572741  83.2875095 146.0400681 169.4144484
  83.7753657 146.9510514 170.5283876  83.5691881 144.8633906 159.3866574
  83.9227005 143.3775280 159.2764780  83.5289989 142.4428091 160.4249994
  82.0209551 142.4581187 160.6799279  81.3464240 141.8082166 159.4894070
  79.8380012 141.8789084 159.4980253  79.3578935 141.1833068 158.2265470
  77.8498128 141.1800083 158.1344067  90.0690000 141.4810000 157.4850000
  89.9920455 141.1103397 157.4926543  89.9095611 140.7784972 159.2325043
  92.2759754 148.7156320 160.8418291  92.4161727 147.3122427 159.7764485
  90.1689720 147.8416836 158.7990912  90.0298237 149.2284455 159.8788742
  90.1752239 147.7188512 161.8572884  90.3404698 146.3167144 160.7909043
  88.1563187 146.8847845 159.7165598  87.9998951 148.2880287 160.7743450
  88.1282658 146.7412563 162.7625970  88.1083866 145.3577500 161.6725358
  85.9987068 147.5909578 161.6565596  85.9756052 146.1933389 162.6688530
  85.9903425 144.6909625 160.6023618  85.9843881 146.1364737 159.5852644
  83.7632357 147.6296140 161.4954736  82.4283203 147.0466983 160.4992458
  83.6940002 147.7347926 158.4544638  85.1077742 148.1435951 159.4319587
  83.7639731 149.8605757 160.6541851  82.3635120 149.4712478 159.6506420
  83.6729548 150.1027877 157.6052164  85.0635354 150.4947619 158.6195471
  83.7210479 152.2441915 159.7895016  82.3187292 151.8507877 158.8002742
  83.6275892 152.4288654 156.7393420  85.0200986 152.8402493 157.7423350
  83.6777766 154.6297647 158.8737785  82.2820217 154.2143078 157.8743739
  84.9829208 155.2114951 156.8203196  83.4870697 156.1568999 156.9283585
  83.5868333 154.7838719 155.8123785  84.0550542 144.0929619 161.9811353
  82.5126585 144.9735741 161.7907896  83.4656181 146.8940562 163.0881876
  85.0008946 146.0327973 163.2402741  83.7627371 144.2400534 164.5320741
  82.2824861 145.1980040 164.3715076  83.4425385 147.1513520 165.4494737
  84.9015863 146.1774758 165.6291921  83.6506746 144.5808177 167.0998960
  82.1959449 145.5731222 166.9238867  83.4221845 147.5422742 167.8786315
  84.8724190 146.5548191 168.0541142  83.6417463 145.0191405 169.6021609
  82.1900940 146.0083802 169.4286289  84.8703060 146.9836532 170.5551465
  83.4219239 146.5902630 171.4992081  83.4057895 147.9724461 170.3885654
  83.9820188 145.2942503 158.4703470  82.4839227 145.0152412 159.3699758
  84.9607693 143.2309571 158.9742213  83.4350396 143.0249919 158.3618611
  84.0940450 142.6357473 161.3398266  83.8317210 141.4201249 160.1564305
  81.6465027 143.4814618 160.8249114  81.7898804 141.9126479 161.6014419
  81.6763368 140.7631193 159.4337989  81.6659557 142.2867440 158.5617341
  79.5132828 142.9290481 159.5003643  79.4344417 141.3999961 160.3927257
  79.7291578 140.1516438 158.2093391  79.7747045 141.6841868 157.3437974
  77.4158941 140.6821213 159.0055216  77.5351444 140.6480585 157.2335859
  77.4681053 142.2043538 158.0863582  92.0000000 138.4140000 152.8740000
  81.5850000 150.3780000 162.1710000  87.8528435 152.8812258 163.1098018
  86.3236208 152.8903423 163.1098476  85.7589748 151.4683454 163.1089514
  84.2307844 151.4749019 163.1083803  83.6592430 150.0750000 163.1080000
  82.3050000 150.0750000 163.1080000  84.3094269 149.0427992 163.1074242
  81.3980000 150.9790000 160.3130000  81.0269627 150.9786082 161.4464083
  81.0239482 150.3626945 163.1104991  88.2220424 152.3468952 163.9932020
  88.2227372 152.3459623 162.2282715  85.9602267 153.4299011 162.2274328
  85.9591634 153.4299044 163.9923625  86.1251151 150.9244740 163.9879224
  86.1250361 150.9259952 162.2277225  83.8635586 151.9933983 162.2161832
  83.8637875 151.9928719 164.0016810  81.9127631 150.9683881 163.1080000
  90.5310000 141.2130000 176.4150000  91.9807774 148.3142005 177.8411438
  90.4716515 148.2287848 177.7542115  89.9119757 147.3256163 178.8452000
  88.4132477 147.2700210 178.6783451  87.7941405 146.4032373 179.7513042
  86.2878159 146.5351808 179.6767451  85.6700844 145.7340000 178.5280000
  84.1240000 145.7340000 178.5280000  83.5166962 147.1607263 178.5280000
  84.0145752 148.0872788 177.4154628  83.4598467 149.5007891 177.6380727
  83.9673630 150.4642987 176.5700697  83.4154346 151.8754171 176.7908251
  83.9239851 152.8156350 175.6956481  83.3772930 154.2307717 175.8727523
  83.8898686 155.1481607 174.7748111  83.6005855 145.0841111 179.8750708
  83.9194433 145.9020878 181.1194143  83.3773105 145.2624233 182.3938002
  83.8053195 146.1263543 183.5739314  83.2890424 145.6050436 184.9085243
  83.7769724 146.5188103 186.0322741  83.2875095 146.0400681 187.3894484
  83.7753657 146.9510514 188.5033876  83.5691881 144.8633906 177.3616574
  83.9227005 143.3775280 177.2514780  83.5289989 142.4428091 178.3999994
  82.0209551 142.4581187 178.6549279  81.3464240 141.8082166 177.4644070
  79.8380012 141.8789084 177.4730253  79.3578935 141.1833068 176.2015470
  77.8498128 141.1800083 176.1094067  90.0690000 141.4810000 175.4600000
  89.9920455 141.1103397 175.4676543  89.9095611 140.7784972 177.2075043
  92.2759754 148.7156320 178.8168291  92.4161727 147.3122427 177.7514485
  90.1689720 147.8416836 176.7740912  90.0298237 149.2284455 177.8538742
  90.1752239 147.7188512 179.8322884  90.3404698 146.3167144 178.7659043
  88.1563187 146.8847845 177.6915598  87.9998951 148.2880287 178.7493450
  88.1282658 146.7412563 180.7375970  88.1083866 145.3577500 179.6475358
  85.9987068 147.5909578 179.6315596  85.9756052 146.1933389 180.6438530
  85.9903425 144.6909625 178.5773618  85.9843881 146.1364737 177.5602644
  83.7632357 147.6296140 179.4704736  82.4283203 147.0466983 178.4742458
  83.6940002 147.7347926 176.4294638  85.1077742 148.1435951 177.4069587
  83.7639731 149.8605757 178.6291851  82.3635120 149.4712478 177.6256420
  83.6729548 150.1027877 175.5802164  85.0635354 150.4947619 176.5945471
  83.7210479 152.2441915 177.7645016  82.3187292 151.8507877 176.7752742
  83.6275892 152.4288654 174.7143420  85.0200986 152.8402493 175.7173350
  83.6777766 154.6297647 176.8487785  82.2820217 154.2143078 175.8493739
  84.9829208 155.2114951 174.7953196  83.4870697 156.1568999 174.9033585
  83.5868333 154.7838719 173.7873785  84.0550542 144.0929619 179.9561353
  82.5126585 144.9735741 179.7657896  83.4656181 146.8940562 181.0631876
  85.0008946 146.0327973 181.2152741  83.7627371 144.2400534 182.5070741
  82.2824861 145.1980040 182.3465076  83.4425385 147.1513520 183.4244737
  84.9015863 146.1774758 183.6041921  83.6506746 144.5808177 185.0748960
  82.1959449 145.5731222 184.8988867  83.4221845 147.5422742 185.8536315
  84.8724190 146.5548191 186.0291142  83.6417463 145.0191405 187.5771609
  82.1900940 146.0083802 187.4036289  84.8703060 146.9836532 188.5301465
  83.4219239 146.5902630 189.4742081  83.4057895 147.9724461 188.3635654
  83.9820188 145.2942503 176.4453470  82.4839227 145.0152412 177.3449758
  84.9607693 143.2309571 176.9492213  83.4350396 143.0249919 176.3368611
  84.0940450 142.6357473 179.3148266  83.8317210 141.4201249 178.1314305
  81.6465027 143.4814618 178.7999114  81.7898804 141.9126479 179.5764419
  81.6763368 140.7631193 177.4087989  81.6659557 142.2867440 176.5367341
  79.5132828 142.9290481 177.4753643  79.4344417 141.3999961 178.3677257
  79.7291578 140.1516438 176.1843391  79.7747045 141.6841868 175.3187974
  77.4158941 140.6821213 176.9805216  77.5351444 140.6480585 175.2085859
  77.4681053 142.2043538 176.0613582  92.0000000 138.4140000 170.8490000
  81.5850000 150.3780000 180.1460000  87.8528435 152.8812258 181.0848018
  86.3236208 152.8903423 181.0848476  85.7589748 151.4683454 181.0839514
  84.2307844 151.4749019 181.0833803  83.6592430 150.0750000 181.0830000
  82.3050000 150.0750000 181.0830000  84.3094269 149.0427992 181.0824242
  81.3980000 150.9790000 178.2880000  81.0269627 150.9786082 179.4214083
  81.0239482 150.3626945 181.0854991  88.2220424 152.3468952 181.9682020
  88.2227372 152.3459623 180.2032715  85.9602267 153.4299011 180.2024328
  85.9591634 153.4299044 181.9673625  86.1251151 150.9244740 181.9629224
  86.1250361 150.9259952 180.2027225  83.8635586 151.9933983 180.1911832
  83.8637875 151.9928719 181.9766810  81.9127631 150.9683881 181.0830000
  90.5310000 159.8170000  68.5660000  91.9807774 166.9182005  69.9921438
  90.4716515 166.8327848  69.9052115  89.9119757 165.9296163  70.9962000
  88.4132477 165.8740210  70.8293451  87.7941405 165.0072373  71.9023042
  86.2878159 165.1391808  71.8277451  85.6700844 164.3380000  70.6790000
  84.1240000 164.3380000  70.6790000  83.5166962 165.7647263  70.6790000
  84.0145752 166.6912788  69.5664628  83.4598467 168.1047891  69.7890727
  83.9673630 169.0682987  68.7210697  83.4154346 170.4794171  68.9418251
  83.9239851 171.4196350  67.8466481  83.3772930 172.8347717  68.0237523
  83.8898686 173.7521607  66.9258111  83.6005855 163.6881111  72.0260708
  83.9194433 164.5060878  73.2704143  83.3773105 163.8664233  74.5448002
  83.8053195 164.7303543  75.7249314  83.2890424 164.2090436  77.0595243
  83.7769724 165.1228103  78.1832741  83.2875095 164.6440681  79.5404484
  83.7753657 165.5550514  80.6543876  83.5691881 163.4673906  69.5126574
  83.9227005 161.9815280  69.4024780  83.5289989 161.0468091  70.5509994
  82.0209551 161.0621187  70.8059279  81.3464240 160.4122166  69.6154070
  79.8380012 160.4829084  69.6240253  79.3578935 159.7873068  68.3525470
  77.8498128 159.7840083  68.2604067  90.0690000 160.0850000  67.6110000
  89.9920455 159.7143397  67.6186543  89.9095611 159.3824972  69.3585043
  92.2759754 167.3196320  70.9678291  92.4161727 165.9162427  69.9024485
  90.1689720 166.4456836  68.9250912  90.0298237 167.8324455  70.0048742
  90.1752239 166.3228512  71.9832884  90.3404698 164.9207144  70.9169043
  88.1563187 165.4887845  69.8425598  87.9998951 166.8920287  70.9003450
  88.1282658 165.3452563  72.8885970  88.1083866 163.9617500  71.7985358
  85.9987068 166.1949578  71.7825596  85.9756052 164.7973389  72.7948530
  85.9903425 163.2949625  70.7283618  85.9843881 164.7404737  69.7112644
  83.7632357 166.2336140  71.6214736  82.4283203 165.6506983  70.6252458
  83.6940002 166.3387926  68.5804638  85.1077742 166.7475951  69.5579587
  83.7639731 168.4645757  70.7801851  82.3635120 168.0752478  69.7766420
  83.6729548 168.7067877  67.7312164  85.0635354 169.0987619  68.7455471
  83.7210479 170.8481915  69.9155016  82.3187292 170.4547877  68.9262742
  83.6275892 171.0328654  66.8653420  85.0200986 171.4442493  67.8683350
  83.6777766 173.2337647  68.9997785  82.2820217 172.8183078  68.0003739
  84.9829208 173.8154951  66.9463196  83.4870697 174.7608999  67.0543585
  83.5868333 173.3878719  65.9383785  84.0550542 162.6969619  72.1071353
  82.5126585 163.5775741  71.9167896  83.4656181 165.4980562  73.2141876
  85.0008946 164.6367973  73.3662741  83.7627371 162.8440534  74.6580741
  82.2824861 163.8020040  74.4975076  83.4425385 165.7553520  75.5754737
  84.9015863 164.7814758  75.7551921  83.6506746 163.1848177  77.2258960
  82.1959449 164.1771222  77.0498867  83.4221845 166.1462742  78.0046315
  84.8724190 165.1588191  78.1801142  83.6417463 163.6231405  79.7281609
  82.1900940 164.6123802  79.5546289  84.8703060 165.5876532  80.6811465
  83.4219239 165.1942630  81.6252081  83.4057895 166.5764461  80.5145654
  83.9820188 163.8982503  68.5963470  82.4839227 163.6192412  69.4959758
  84.9607693 161.8349571  69.1002213  83.4350396 161.6289919  68.4878611
  84.0940450 161.2397473  71.4658266  83.8317210 160.0241249  70.2824305
  81.6465027 162.0854618  70.9509114  81.7898804 160.5166479  71.7274419
  81.6763368 159.3671193  69.5597989  81.6659557 160.8907440  68.6877341
  79.5132828 161.5330481  69.6263643  79.4344417 160.0039961  70.5187257
  79.7291578 158.7556438  68.3353391  79.7747045 160.2881868  67.4697974
  77.4158941 159.2861213  69.1315216  77.5351444 159.2520585  67.3595859
  77.4681053 160.8083538  68.2123582  92.0000000 157.0180000  63.0000000
  81.5850000 168.9820000  72.2970000  87.8528435 171.4852258  73.2358018
  86.3236208 171.4943423  73.2358476  85.7589748 170.0723454  73.2349514
  84.2307844 170.0789019  73.2343803  83.6592430 168.6790000  73.2340000
  82.3050000 168.6790000  73.2340000  84.3094269 167.6467992  73.2334242
  81.3980000 169.5830000  70.4390000  81.0269627 169.5826082  71.5724083
  81.0239482 168.9666945  73.2364991  88.2220424 170.9508952  74.1192020
  88.2227372 170.9499623  72.3542715  85.9602267 172.0339011  72.3534328
  85.9591634 172.0339044  74.1183625  86.1251151 169.5284740  74.1139224
  86.1250361 169.5299952  72.3537225  83.8635586 170.5973983  72.3421832
  83.8637875 170.5968719  74.1276810  81.9127631 169.5723881  73.2340000
  90.5310000 159.8170000  86.5410000  91.9807774 166.9182005  87.9671438
  90.4716515 166.8327848  87.8802115  89.9119757 165.9296163  88.9712000
  88.4132477 165.8740210  88.8043451  87.7941405 165.0072373  89.8773042
  86.2878159 165.1391808  89.8027451  85.6700844 164.3380000  88.6540000
  84.1240000 164.3380000  88.6540000  83.5166962 165.7647263  88.6540000
  84.0145752 166.6912788  87.5414628  83.4598467 168.1047891  87.7640727
  83.9673630 169.0682987  86.6960697  83.4154346 170.4794171  86.9168251
  83.9239851 171.4196350  85.8216481  83.3772930 172.8347717  85.9987523
  83.8898686 173.7521607  84.9008111  83.6005855 163.6881111  90.0010708
  83.9194433 164.5060878  91.2454143  83.3773105 163.8664233  92.5198002
  83.8053195 164.7303543  93.6999314  83.2890424 164.2090436  95.0345243
  83.7769724 165.1228103  96.1582741  83.2875095 164.6440681  97.5154484
  83.7753657 165.5550514  98.6293876  83.5691881 163.4673906  87.4876574
  83.9227005 161.9815280  87.3774780  83.5289989 161.0468091  88.5259994
  82.0209551 161.0621187  88.7809279  81.3464240 160.4122166  87.5904070
  79.8380012 160.4829084  87.5990253  79.3578935 159.7873068  86.3275470
  77.8498128 159.7840083  86.2354067  90.0690000 160.0850000  85.5860000
  89.9920455 159.7143397  85.5936543  89.9095611 159.3824972  87.3335043
  92.2759754 167.3196320  88.9428291  92.4161727 165.9162427  87.8774485
  90.1689720 166.4456836  86.9000912  90.0298237 167.8324455  87.9798742
  90.1752239 166.3228512  89.9582884  90.3404698 164.9207144  88.8919043
  88.1563187 165.4887845  87.8175598  87.9998951 166.8920287  88.8753450
  88.1282658 165.3452563  90.8635970  88.1083866 163.9617500  89.7735358
  85.9987068 166.1949578  89.7575596  85.9756052 164.7973389  90.7698530
  85.9903425 163.2949625  88.7033618  85.9843881 164.7404737  87.6862644
  83.7632357 166.2336140  89.5964736  82.4283203 165.6506983  88.6002458
  83.6940002 166.3387926  86.5554638  85.1077742 166.7475951  87.5329587
  83.7639731 168.4645757  88.7551851  82.3635120 168.0752478  87.7516420
  83.6729548 168.7067877  85.7062164  85.0635354 169.0987619  86.7205471
  83.7210479 170.8481915  87.8905016  82.3187292 170.4547877  86.9012742
  83.6275892 171.0328654  84.8403420  85.0200986 171.4442493  85.8433350
  83.6777766 173.2337647  86.9747785  82.2820217 172.8183078  85.9753739
  84.9829208 173.8154951  84.9213196  83.4870697 174.7608999  85.0293585
  83.5868333 173.3878719  83.9133785  84.0550542 162.6969619  90.0821353
  82.5126585 163.5775741  89.8917896  83.4656181 165.4980562  91.1891876
  85.0008946 164.6367973  91.3412741  83.7627371 162.8440534  92.6330741
  82.2824861 163.8020040  92.4725076  83.4425385 165.7553520  93.5504737
  84.9015863 164.7814758  93.7301921  83.6506746 163.1848177  95.2008960
  82.1959449 164.1771222  95.0248867  83.4221845 166.1462742  95.9796315
  84.8724190 165.1588191  96.1551142  83.6417463 163.6231405  97.7031609
  82.1900940 164.6123802  97.5296289  84.8703060 165.5876532  98.6561465
  83.4219239 165.1942630  99.6002081  83.4057895 166.5764461  98.4895654
  83.9820188 163.8982503  86.5713470  82.4839227 163.6192412  87.4709758
  84.9607693 161.8349571  87.0752213  83.4350396 161.6289919  86.4628611
  84.0940450 161.2397473  89.4408266  83.8317210 160.0241249  88.2574305
  81.6465027 162.0854618  88.9259114  81.7898804 160.5166479  89.7024419
  81.6763368 159.3671193  87.5347989  81.6659557 160.8907440  86.6627341
  79.5132828 161.5330481  87.6013643  79.4344417 160.0039961  88.4937257
  79.7291578 158.7556438  86.3103391  79.7747045 160.2881868  85.4447974
  77.4158941 159.2861213  87.1065216  77.5351444 159.2520585  85.3345859
  77.4681053 160.8083538  86.1873582  92.0000000 157.0180000  80.9750000
  81.5850000 168.9820000  90.2720000  87.8528435 171.4852258  91.2108018
  86.3236208 171.4943423  91.2108476  85.7589748 170.0723454  91.2099514
  84.2307844 170.0789019  91.2093803  83.6592430 168.6790000  91.2090000
  82.3050000 168.6790000  91.2090000  84.3094269 167.6467992  91.2084242
  81.3980000 169.5830000  88.4140000  81.0269627 169.5826082  89.5474083
  81.0239482 168.9666945  91.2114991  88.2220424 170.9508952  92.0942020
  88.2227372 170.9499623  90.3292715  85.9602267 172.0339011  90.3284328
  85.9591634 172.0339044  92.0933625  86.1251151 169.5284740  92.0889224
  86.1250361 169.5299952  90.3287225  83.8635586 170.5973983  90.3171832
  83.8637875 170.5968719  92.1026810  81.9127631 169.5723881  91.2090000
  90.5310000 159.8170000 104.5160000  91.9807774 166.9182005 105.9421438
  90.4716515 166.8327848 105.8552115  89.9119757 165.9296163 106.9462000
  88.4132477 165.8740210 106.7793451  87.7941405 165.0072373 107.8523042
  86.2878159 165.1391808 107.7777451  85.6700844 164.3380000 106.6290000
  84.1240000 164.3380000 106.6290000  83.5166962 165.7647263 106.6290000
  84.0145752 166.6912788 105.5164628  83.4598467 168.1047891 105.7390727
  83.9673630 169.0682987 104.6710697  83.4154346 170.4794171 104.8918251
  83.9239851 171.4196350 103.7966481  83.3772930 172.8347717 103.9737523
  83.8898686 173.7521607 102.8758111  83.6005855 163.6881111 107.9760708
  83.9194433 164.5060878 109.2204143  83.3773105 163.8664233 110.4948002
  83.8053195 164.7303543 111.6749314  83.2890424 164.2090436 113.0095243
  83.7769724 165.1228103 114.1332741  83.2875095 164.6440681 115.4904484
  83.7753657 165.5550514 116.6043876  83.5691881 163.4673906 105.4626574
  83.9227005 161.9815280 105.3524780  83.5289989 161.0468091 106.5009994
  82.0209551 161.0621187 106.7559279  81.3464240 160.4122166 105.5654070
  79.8380012 160.4829084 105.5740253  79.3578935 159.7873068 104.3025470
  77.8498128 159.7840083 104.2104067  90.0690000 160.0850000 103.5610000
  89.9920455 159.7143397 103.5686543  89.9095611 159.3824972 105.3085043
  92.2759754 167.3196320 106.9178291  92.4161727 165.9162427 105.8524485
  90.1689720 166.4456836 104.8750912  90.0298237 167.8324455 105.9548742
  90.1752239 166.3228512 107.9332884  90.3404698 164.9207144 106.8669043
  88.1563187 165.4887845 105.7925598  87.9998951 166.8920287 106.8503450
  88.1282658 165.3452563 108.8385970  88.1083866 163.9617500 107.7485358
  85.9987068 166.1949578 107.7325596  85.9756052 164.7973389 108.7448530
  85.9903425 163.2949625 106.6783618  85.9843881 164.7404737 105.6612644
  83.7632357 166.2336140 107.5714736  82.4283203 165.6506983 106.5752458
  83.6940002 166.3387926 104.5304638  85.1077742 166.7475951 105.5079587
  83.7639731 168.4645757 106.7301851  82.3635120 168.0752478 105.7266420
  83.6729548 168.7067877 103.6812164  85.0635354 169.0987619 104.6955471
  83.7210479 170.8481915 105.8655016  82.3187292 170.4547877 104.8762742
  83.6275892 171.0328654 102.8153420  85.0200986 171.4442493 103.8183350
  83.6777766 173.2337647 104.9497785  82.2820217 172.8183078 103.9503739
  84.9829208 173.8154951 102.8963196  83.4870697 174.7608999 103.0043585
  83.5868333 173.3878719 101.8883785  84.0550542 162.6969619 108.0571353
  82.5126585 163.5775741 107.8667896  83.4656181 165.4980562 109.1641876
  85.0008946 164.6367973 109.3162741  83.7627371 162.8440534 110.6080741
  82.2824861 163.8020040 110.4475076  83.4425385 165.7553520 111.5254737
  84.9015863 164.7814758 111.7051921  83.6506746 163.1848177 113.1758960
  82.1959449 164.1771222 112.9998867  83.4221845 166.1462742 113.9546315
  84.8724190 165.1588191 114.1301142  83.6417463 163.6231405 115.6781609
  82.1900940 164.6123802 115.5046289  84.8703060 165.5876532 116.6311465
  83.4219239 165.1942630 117.5752081  83.4057895 166.5764461 116.4645654
  83.9820188 163.8982503 104.5463470  82.4839227 163.6192412 105.4459758
  84.9607693 161.8349571 105.0502213  83.4350396 161.6289919 104.4378611
  84.0940450 161.2397473 107.4158266  83.8317210 160.0241249 106.2324305
  81.6465027 162.0854618 106.9009114  81.7898804 160.5166479 107.6774419
  81.6763368 159.3671193 105.5097989  81.6659557 160.8907440 104.6377341
  79.5132828 161.5330481 105.5763643  79.4344417 160.0039961 106.4687257
  79.7291578 158.7556438 104.2853391  79.7747045 160.2881868 103.4197974
  77.4158941 159.2861213 105.0815216  77.5351444 159.2520585 103.3095859
  77.4681053 160.8083538 104.1623582  92.0000000 157.0180000  98.9500000
  81.5850000 168.9820000 108.2470000  87.8528435 171.4852258 109.1858018
  86.3236208 171.4943423 109.1858476  85.7589748 170.0723454 109.1849514
  84.2307844 170.0789019 109.1843803  83.6592430 168.6790000 109.1840000
  82.3050000 168.6790000 109.1840000  84.3094269 167.6467992 109.1834242
  81.3980000 169.5830000 106.3890000  81.0269627 169.5826082 107.5224083
  81.0239482 168.9666945 109.1864991  88.2220424 170.9508952 110.0692020
  88.2227372 170.9499623 108.3042715  85.9602267 172.0339011 108.3034328
  85.9591634 172.0339044 110.0683625  86.1251151 169.5284740 110.0639224
  86.1250361 169.5299952 108.3037225  83.8635586 170.5973983 108.2921832
  83.8637875 170.5968719 110.0776810  81.9127631 169.5723881 109.1840000
  90.5310000 159.8170000 122.4900000  91.9807774 166.9182005 123.9161438
  90.4716515 166.8327848 123.8292115  89.9119757 165.9296163 124.9202000
  88.4132477 165.8740210 124.7533451  87.7941405 165.0072373 125.8263042
  86.2878159 165.1391808 125.7517451  85.6700844 164.3380000 124.6030000
  84.1240000 164.3380000 124.6030000  83.5166962 165.7647263 124.6030000
  84.0145752 166.6912788 123.4904628  83.4598467 168.1047891 123.7130727
  83.9673630 169.0682987 122.6450697  83.4154346 170.4794171 122.8658251
  83.9239851 171.4196350 121.7706481  83.3772930 172.8347717 121.9477523
  83.8898686 173.7521607 120.8498111  83.6005855 163.6881111 125.9500708
  83.9194433 164.5060878 127.1944143  83.3773105 163.8664233 128.4688002
  83.8053195 164.7303543 129.6489314  83.2890424 164.2090436 130.9835243
  83.7769724 165.1228103 132.1072741  83.2875095 164.6440681 133.4644484
  83.7753657 165.5550514 134.5783876  83.5691881 163.4673906 123.4366574
  83.9227005 161.9815280 123.3264780  83.5289989 161.0468091 124.4749994
  82.0209551 161.0621187 124.7299279  81.3464240 160.4122166 123.5394070
  79.8380012 160.4829084 123.5480253  79.3578935 159.7873068 122.2765470
  77.8498128 159.7840083 122.1844067  90.0690000 160.0850000 121.5350000
  89.9920455 159.7143397 121.5426543  89.9095611 159.3824972 123.2825043
  92.2759754 167.3196320 124.8918291  92.4161727 165.9162427 123.8264485
  90.1689720 166.4456836 122.8490912  90.0298237 167.8324455 123.9288742
  90.1752239 166.3228512 125.9072884  90.3404698 164.9207144 124.8409043
  88.1563187 165.4887845 123.7665598  87.9998951 166.8920287 124.8243450
  88.1282658 165.3452563 126.8125970  88.1083866 163.9617500 125.7225358
  85.9987068 166.1949578 125.7065596  85.9756052 164.7973389 126.7188530
  85.9903425 163.2949625 124.6523618  85.9843881 164.7404737 123.6352644
  83.7632357 166.2336140 125.5454736  82.4283203 165.6506983 124.5492458
  83.6940002 166.3387926 122.5044638  85.1077742 166.7475951 123.4819587
  83.7639731 168.4645757 124.7041851  82.3635120 168.0752478 123.7006420
  83.6729548 168.7067877 121.6552164  85.0635354 169.0987619 122.6695471
  83.7210479 170.8481915 123.8395016  82.3187292 170.4547877 122.8502742
  83.6275892 171.0328654 120.7893420  85.0200986 171.4442493 121.7923350
  83.6777766 173.2337647 122.9237785  82.2820217 172.8183078 121.9243739
  84.9829208 173.8154951 120.8703196  83.4870697 174.7608999 120.9783585
  83.5868333 173.3878719 119.8623785  84.0550542 162.6969619 126.0311353
  82.5126585 163.5775741 125.8407896  83.4656181 165.4980562 127.1381876
  85.0008946 164.6367973 127.2902741  83.7627371 162.8440534 128.5820741
  82.2824861 163.8020040 128.4215076  83.4425385 165.7553520 129.4994737
  84.9015863 164.7814758 129.6791921  83.6506746 163.1848177 131.1498960
  82.1959449 164.1771222 130.9738867  83.4221845 166.1462742 131.9286315
  84.8724190 165.1588191 132.1041142  83.6417463 163.6231405 133.6521609
  82.1900940 164.6123802 133.4786289  84.8703060 165.5876532 134.6051465
  83.4219239 165.1942630 135.5492081  83.4057895 166.5764461 134.4385654
  83.9820188 163.8982503 122.5203470  82.4839227 163.6192412 123.4199758
  84.9607693 161.8349571 123.0242213  83.4350396 161.6289919 122.4118611
  84.0940450 161.2397473 125.3898266  83.8317210 160.0241249 124.2064305
  81.6465027 162.0854618 124.8749114  81.7898804 160.5166479 125.6514419
  81.6763368 159.3671193 123.4837989  81.6659557 160.8907440 122.6117341
  79.5132828 161.5330481 123.5503643  79.4344417 160.0039961 124.4427257
  79.7291578 158.7556438 122.2593391  79.7747045 160.2881868 121.3937974
  77.4158941 159.2861213 123.0555216  77.5351444 159.2520585 121.2835859
  77.4681053 160.8083538 122.1363582  92.0000000 157.0180000 116.9240000
  81.5850000 168.9820000 126.2210000  87.8528435 171.4852258 127.1598018
  86.3236208 171.4943423 127.1598476  85.7589748 170.0723454 127.1589514
  84.2307844 170.0789019 127.1583803  83.6592430 168.6790000 127.1580000
  82.3050000 168.6790000 127.1580000  84.3094269 167.6467992 127.1574242
  81.3980000 169.5830000 124.3630000  81.0269627 169.5826082 125.4964083
  81.0239482 168.9666945 127.1604991  88.2220424 170.9508952 128.0432020
  88.2227372 170.9499623 126.2782715  85.9602267 172.0339011 126.2774328
  85.9591634 172.0339044 128.0423625  86.1251151 169.5284740 128.0379224
  86.1250361 169.5299952 126.2777225  83.8635586 170.5973983 126.2661832
  83.8637875 170.5968719 128.0516810  81.9127631 169.5723881 127.1580000
  90.5310000 159.8170000 140.4650000  91.9807774 166.9182005 141.8911438
  90.4716515 166.8327848 141.8042115  89.9119757 165.9296163 142.8952000
  88.4132477 165.8740210 142.7283451  87.7941405 165.0072373 143.8013042
  86.2878159 165.1391808 143.7267451  85.6700844 164.3380000 142.5780000
  84.1240000 164.3380000 142.5780000  83.5166962 165.7647263 142.5780000
  84.0145752 166.6912788 141.4654628  83.4598467 168.1047891 141.6880727
  83.9673630 169.0682987 140.6200697  83.4154346 170.4794171 140.8408251
  83.9239851 171.4196350 139.7456481  83.3772930 172.8347717 139.9227523
  83.8898686 173.7521607 138.8248111  83.6005855 163.6881111 143.9250708
  83.9194433 164.5060878 145.1694143  83.3773105 163.8664233 146.4438002
  83.8053195 164.7303543 147.6239314  83.2890424 164.2090436 148.9585243
  83.7769724 165.1228103 150.0822741  83.2875095 164.6440681 151.4394484
  83.7753657 165.5550514 152.5533876  83.5691881 163.4673906 141.4116574
  83.9227005 161.9815280 141.3014780  83.5289989 161.0468091 142.4499994
  82.0209551 161.0621187 142.7049279  81.3464240 160.4122166 141.5144070
  79.8380012 160.4829084 141.5230253  79.3578935 159.7873068 140.2515470
  77.8498128 159.7840083 140.1594067  90.0690000 160.0850000 139.5100000
  89.9920455 159.7143397 139.5176543  89.9095611 159.3824972 141.2575043
  92.2759754 167.3196320 142.8668291  92.4161727 165.9162427 141.8014485
  90.1689720 166.4456836 140.8240912  90.0298237 167.8324455 141.9038742
  90.1752239 166.3228512 143.8822884  90.3404698 164.9207144 142.8159043
  88.1563187 165.4887845 141.7415598  87.9998951 166.8920287 142.7993450
  88.1282658 165.3452563 144.7875970  88.1083866 163.9617500 143.6975358
  85.9987068 166.1949578 143.6815596  85.9756052 164.7973389 144.6938530
  85.9903425 163.2949625 142.6273618  85.9843881 164.7404737 141.6102644
  83.7632357 166.2336140 143.5204736  82.4283203 165.6506983 142.5242458
  83.6940002 166.3387926 140.4794638  85.1077742 166.7475951 141.4569587
  83.7639731 168.4645757 142.6791851  82.3635120 168.0752478 141.6756420
  83.6729548 168.7067877 139.6302164  85.0635354 169.0987619 140.6445471
  83.7210479 170.8481915 141.8145016  82.3187292 170.4547877 140.8252742
  83.6275892 171.0328654 138.7643420  85.0200986 171.4442493 139.7673350
  83.6777766 173.2337647 140.8987785  82.2820217 172.8183078 139.8993739
  84.9829208 173.8154951 138.8453196  83.4870697 174.7608999 138.9533585
  83.5868333 173.3878719 137.8373785  84.0550542 162.6969619 144.0061353
  82.5126585 163.5775741 143.8157896  83.4656181 165.4980562 145.1131876
  85.0008946 164.6367973 145.2652741  83.7627371 162.8440534 146.5570741
  82.2824861 163.8020040 146.3965076  83.4425385 165.7553520 147.4744737
  84.9015863 164.7814758 147.6541921  83.6506746 163.1848177 149.1248960
  82.1959449 164.1771222 148.9488867  83.4221845 166.1462742 149.9036315
  84.8724190 165.1588191 150.0791142  83.6417463 163.6231405 151.6271609
  82.1900940 164.6123802 151.4536289  84.8703060 165.5876532 152.5801465
  83.4219239 165.1942630 153.5242081  83.4057895 166.5764461 152.4135654
  83.9820188 163.8982503 140.4953470  82.4839227 163.6192412 141.3949758
  84.9607693 161.8349571 140.9992213  83.4350396 161.6289919 140.3868611
  84.0940450 161.2397473 143.3648266  83.8317210 160.0241249 142.1814305
  81.6465027 162.0854618 142.8499114  81.7898804 160.5166479 143.6264419
  81.6763368 159.3671193 141.4587989  81.6659557 160.8907440 140.5867341
  79.5132828 161.5330481 141.5253643  79.4344417 160.0039961 142.4177257
  79.7291578 158.7556438 140.2343391  79.7747045 160.2881868 139.3687974
  77.4158941 159.2861213 141.0305216  77.5351444 159.2520585 139.2585859
  77.4681053 160.8083538 140.1113582  92.0000000 157.0180000 134.8990000
  81.5850000 168.9820000 144.1960000  87.8528435 171.4852258 145.1348018
  86.3236208 171.4943423 145.1348476  85.7589748 170.0723454 145.1339514
  84.2307844 170.0789019 145.1333803  83.6592430 168.6790000 145.1330000
  82.3050000 168.6790000 145.1330000  84.3094269 167.6467992 145.1324242
  81.3980000 169.5830000 142.3380000  81.0269627 169.5826082 143.4714083
  81.0239482 168.9666945 145.1354991  88.2220424 170.9508952 146.0182020
  88.2227372 170.9499623 144.2532715  85.9602267 172.0339011 144.2524328
  85.9591634 172.0339044 146.0173625  86.1251151 169.5284740 146.0129224
  86.1250361 169.5299952 144.2527225  83.8635586 170.5973983 144.2411832
  83.8637875 170.5968719 146.0266810  81.9127631 169.5723881 145.1330000
  90.5310000 159.8170000 158.4400000  91.9807774 166.9182005 159.8661438
  90.4716515 166.8327848 159.7792115  89.9119757 165.9296163 160.8702000
  88.4132477 165.8740210 160.7033451  87.7941405 165.0072373 161.7763042
  86.2878159 165.1391808 161.7017451  85.6700844 164.3380000 160.5530000
  84.1240000 164.3380000 160.5530000  83.5166962 165.7647263 160.5530000
  84.0145752 166.6912788 159.4404628  83.4598467 168.1047891 159.6630727
  83.9673630 169.0682987 158.5950697  83.4154346 170.4794171 158.8158251
  83.9239851 171.4196350 157.7206481  83.3772930 172.8347717 157.8977523
  83.8898686 173.7521607 156.7998111  83.6005855 163.6881111 161.9000708
  83.9194433 164.5060878 163.1444143  83.3773105 163.8664233 164.4188002
  83.8053195 164.7303543 165.5989314  83.2890424 164.2090436 166.9335243
  83.7769724 165.1228103 168.0572741  83.2875095 164.6440681 169.4144484
  83.7753657 165.5550514 170.5283876  83.5691881 163.4673906 159.3866574
  83.9227005 161.9815280 159.2764780  83.5289989 161.0468091 160.4249994
  82.0209551 161.0621187 160.6799279  81.3464240 160.4122166 159.4894070
  79.8380012 160.4829084 159.4980253  79.3578935 159.7873068 158.2265470
  77.8498128 159.7840083 158.1344067  90.0690000 160.0850000 157.4850000
  89.9920455 159.7143397 157.4926543  89.9095611 159.3824972 159.2325043
  92.2759754 167.3196320 160.8418291  92.4161727 165.9162427 159.7764485
  90.1689720 166.4456836 158.7990912  90.0298237 167.8324455 159.8788742
  90.1752239 166.3228512 161.8572884  90.3404698 164.9207144 160.7909043
  88.1563187 165.4887845 159.7165598  87.9998951 166.8920287 160.7743450
  88.1282658 165.3452563 162.7625970  88.1083866 163.9617500 161.6725358
  85.9987068 166.1949578 161.6565596  85.9756052 164.7973389 162.6688530
  85.9903425 163.2949625 160.6023618  85.9843881 164.7404737 159.5852644
  83.7632357 166.2336140 161.4954736  82.4283203 165.6506983 160.4992458
  83.6940002 166.3387926 158.4544638  85.1077742 166.7475951 159.4319587
  83.7639731 168.4645757 160.6541851  82.3635120 168.0752478 159.6506420
  83.6729548 168.7067877 157.6052164  85.0635354 169.0987619 158.6195471
  83.7210479 170.8481915 159.7895016  82.3187292 170.4547877 158.8002742
  83.6275892 171.0328654 156.7393420  85.0200986 171.4442493 157.7423350
  83.6777766 173.2337647 158.8737785  82.2820217 172.8183078 157.8743739
  84.9829208 173.8154951 156.8203196  83.4870697 174.7608999 156.9283585
  83.5868333 173.3878719 155.8123785  84.0550542 162.6969619 161.9811353
  82.5126585 163.5775741 161.7907896  83.4656181 165.4980562 163.0881876
  85.0008946 164.6367973 163.2402741  83.7627371 162.8440534 164.5320741
  82.2824861 163.8020040 164.3715076  83.4425385 165.7553520 165.4494737
  84.9015863 164.7814758 165.6291921  83.6506746 163.1848177 167.0998960
  82.1959449 164.1771222 166.9238867  83.4221845 166.1462742 167.8786315
  84.8724190 165.1588191 168.0541142  83.6417463 163.6231405 169.6021609
  82.1900940 164.6123802 169.4286289  84.8703060 165.5876532 170.5551465
  83.4219239 165.1942630 171.4992081  83.4057895 166.5764461 170.3885654
  83.9820188 163.8982503 158.4703470  82.4839227 163.6192412 159.3699758
  84.9607693 161.8349571 158.9742213  83.4350396 161.6289919 158.3618611
  84.0940450 161.2397473 161.3398266  83.8317210 160.0241249 160.1564305
  81.6465027 162.0854618 160.8249114  81.7898804 160.5166479 161.6014419
  81.6763368 159.3671193 159.4337989  81.6659557 160.8907440 158.5617341
  79.5132828 161.5330481 159.5003643  79.4344417 160.0039961 160.3927257
  79.7291578 158.7556438 158.2093391  79.7747045 160.2881868 157.3437974
  77.4158941 159.2861213 159.0055216  77.5351444 159.2520585 157.2335859
  77.4681053 160.8083538 158.0863582  92.0000000 157.0180000 152.8740000
  81.5850000 168.9820000 162.1710000  87.8528435 171.4852258 163.1098018
  86.3236208 171.4943423 163.1098476  85.7589748 170.0723454 163.1089514
  84.2307844 170.0789019 163.1083803  83.6592430 168.6790000 163.1080000
  82.3050000 168.6790000 163.1080000  84.3094269 167.6467992 163.1074242
  81.3980000 169.5830000 160.3130000  81.0269627 169.5826082 161.4464083
  81.0239482 168.9666945 163.1104991  88.2220424 170.9508952 163.9932020
  88.2227372 170.9499623 162.2282715  85.9602267 172.0339011 162.2274328
  85.9591634 172.0339044 163.9923625  86.1251151 169.5284740 163.9879224
  86.1250361 169.5299952 162.2277225  83.8635586 170.5973983 162.2161832
  83.8637875 170.5968719 164.0016810  81.9127631 169.5723881 163.1080000
  90.5310000 159.8170000 176.4150000  91.9807774 166.9182005 177.8411438
  90.4716515 166.8327848 177.7542115  89.9119757 165.9296163 178.8452000
  88.4132477 165.8740210 178.6783451  87.7941405 165.0072373 179.7513042
  86.2878159 165.1391808 179.6767451  85.6700844 164.3380000 178.5280000
  84.1240000 164.3380000 178.5280000  83.5166962 165.7647263 178.5280000
  84.0145752 166.6912788 177.4154628  83.4598467 168.1047891 177.6380727
  83.9673630 169.0682987 176.5700697  83.4154346 170.4794171 176.7908251
  83.9239851 171.4196350 175.6956481  83.3772930 172.8347717 175.8727523
  83.8898686 173.7521607 174.7748111  83.6005855 163.6881111 179.8750708
  83.9194433 164.5060878 181.1194143  83.3773105 163.8664233 182.3938002
  83.8053195 164.7303543 183.5739314  83.2890424 164.2090436 184.9085243
  83.7769724 165.1228103 186.0322741  83.2875095 164.6440681 187.3894484
  83.7753657 165.5550514 188.5033876  83.5691881 163.4673906 177.3616574
  83.9227005 161.9815280 177.2514780  83.5289989 161.0468091 178.3999994
  82.0209551 161.0621187 178.6549279  81.3464240 160.4122166 177.4644070
  79.8380012 160.4829084 177.4730253  79.3578935 159.7873068 176.2015470
  77.8498128 159.7840083 176.1094067  90.0690000 160.0850000 175.4600000
  89.9920455 159.7143397 175.4676543  89.9095611 159.3824972 177.2075043
  92.2759754 167.3196320 178.8168291  92.4161727 165.9162427 177.7514485
  90.1689720 166.4456836 176.7740912  90.0298237 167.8324455 177.8538742
  90.1752239 166.3228512 179.8322884  90.3404698 164.9207144 178.7659043
  88.1563187 165.4887845 177.6915598  87.9998951 166.8920287 178.7493450
  88.1282658 165.3452563 180.7375970  88.1083866 163.9617500 179.6475358
  85.9987068 166.1949578 179.6315596  85.9756052 164.7973389 180.6438530
  85.9903425 163.2949625 178.5773618  85.9843881 164.7404737 177.5602644
  83.7632357 166.2336140 179.4704736  82.4283203 165.6506983 178.4742458
  83.6940002 166.3387926 176.4294638  85.1077742 166.7475951 177.4069587
  83.7639731 168.4645757 178.6291851  82.3635120 168.0752478 177.6256420
  83.6729548 168.7067877 175.5802164  85.0635354 169.0987619 176.5945471
  83.7210479 170.8481915 177.7645016  82.3187292 170.4547877 176.7752742
  83.6275892 171.0328654 174.7143420  85.0200986 171.4442493 175.7173350
  83.6777766 173.2337647 176.8487785  82.2820217 172.8183078 175.8493739
  84.9829208 173.8154951 174.7953196  83.4870697 174.7608999 174.9033585
  83.5868333 173.3878719 173.7873785  84.0550542 162.6969619 179.9561353
  82.5126585 163.5775741 179.7657896  83.4656181 165.4980562 181.0631876
  85.0008946 164.6367973 181.2152741  83.7627371 162.8440534 182.5070741
  82.2824861 163.8020040 182.3465076  83.4425385 165.7553520 183.4244737
  84.9015863 164.7814758 183.6041921  83.6506746 163.1848177 185.0748960
  82.1959449 164.1771222 184.8988867  83.4221845 166.1462742 185.8536315
  84.8724190 165.1588191 186.0291142  83.6417463 163.6231405 187.5771609
  82.1900940 164.6123802 187.4036289  84.8703060 165.5876532 188.5301465
  83.4219239 165.1942630 189.4742081  83.4057895 166.5764461 188.3635654
  83.9820188 163.8982503 176.4453470  82.4839227 163.6192412 177.3449758
  84.9607693 161.8349571 176.9492213  83.4350396 161.6289919 176.3368611
  84.0940450 161.2397473 179.3148266  83.8317210 160.0241249 178.1314305
  81.6465027 162.0854618 178.7999114  81.7898804 160.5166479 179.5764419
  81.6763368 159.3671193 177.4087989  81.6659557 160.8907440 176.5367341
  79.5132828 161.5330481 177.4753643  79.4344417 160.0039961 178.3677257
  79.7291578 158.7556438 176.1843391  79.7747045 160.2881868 175.3187974
  77.4158941 159.2861213 176.9805216  77.5351444 159.2520585 175.2085859
  77.4681053 160.8083538 176.0613582  92.0000000 157.0180000 170.8490000
  81.5850000 168.9820000 180.1460000  87.8528435 171.4852258 181.0848018
  86.3236208 171.4943423 181.0848476  85.7589748 170.0723454 181.0839514
  84.2307844 170.0789019 181.0833803  83.6592430 168.6790000 181.0830000
  82.3050000 168.6790000 181.0830000  84.3094269 167.6467992 181.0824242
  81.3980000 169.5830000 178.2880000  81.0269627 169.5826082 179.4214083
  81.0239482 168.9666945 181.0854991  88.2220424 170.9508952 181.9682020
  88.2227372 170.9499623 180.2032715  85.9602267 172.0339011 180.2024328
  85.9591634 172.0339044 181.9673625  86.1251151 169.5284740 181.9629224
  86.1250361 169.5299952 180.2027225  83.8635586 170.5973983 180.1911832
  83.8637875 170.5968719 181.9766810  81.9127631 169.5723881 181.0830000
  90.5310000 178.4210000  68.5660000  91.9807774 185.5222005  69.9921438
  90.4716515 185.4367848  69.9052115  89.9119757 184.5336163  70.9962000
  88.4132477 184.4780210  70.8293451  87.7941405 183.6112373  71.9023042
  86.2878159 183.7431808  71.8277451  85.6700844 182.9420000  70.6790000
  84.1240000 182.9420000  70.6790000  83.5166962 184.3687263  70.6790000
  84.0145752 185.2952788  69.5664628  83.4598467 186.7087891  69.7890727
  83.9673630 187.6722987  68.7210697  83.4154346 189.0834171  68.9418251
  83.9239851 190.0236350  67.8466481  83.3772930 191.4387717  68.0237523
  83.8898686 192.3561607  66.9258111  83.6005855 182.2921111  72.0260708
  83.9194433 183.1100878  73.2704143  83.3773105 182.4704233  74.5448002
  83.8053195 183.3343543  75.7249314  83.2890424 182.8130436  77.0595243
  83.7769724 183.7268103  78.1832741  83.2875095 183.2480681  79.5404484
  83.7753657 184.1590514  80.6543876  83.5691881 182.0713906  69.5126574
  83.9227005 180.5855280  69.4024780  83.5289989 179.6508091  70.5509994
  82.0209551 179.6661187  70.8059279  81.3464240 179.0162166  69.6154070
  79.8380012 179.0869084  69.6240253  79.3578935 178.3913068  68.3525470
  77.8498128 178.3880083  68.2604067  90.0690000 178.6890000  67.6110000
  89.9920455 178.3183397  67.6186543  89.9095611 177.9864972  69.3585043
  92.2759754 185.9236320  70.9678291  92.4161727 184.5202427  69.9024485
  90.1689720 185.0496836  68.9250912  90.0298237 186.4364455  70.0048742
  90.1752239 184.9268512  71.9832884  90.3404698 183.5247144  70.9169043
  88.1563187 184.0927845  69.8425598  87.9998951 185.4960287  70.9003450
  88.1282658 183.9492563  72.8885970  88.1083866 182.5657500  71.7985358
  85.9987068 184.7989578  71.7825596  85.9756052 183.4013389  72.7948530
  85.9903425 181.8989625  70.7283618  85.9843881 183.3444737  69.7112644
  83.7632357 184.8376140  71.6214736  82.4283203 184.2546983  70.6252458
  83.6940002 184.9427926  68.5804638  85.1077742 185.3515951  69.5579587
  83.7639731 187.0685757  70.7801851  82.3635120 186.6792478  69.7766420
  83.6729548 187.3107877  67.7312164  85.0635354 187.7027619  68.7455471
  83.7210479 189.4521915  69.9155016  82.3187292 189.0587877  68.9262742
  83.6275892 189.6368654  66.8653420  85.0200986 190.0482493  67.8683350
  83.6777766 191.8377647  68.9997785  82.2820217 191.4223078  68.0003739
  84.9829208 192.4194951  66.9463196  83.4870697 193.3648999  67.0543585
  83.5868333 191.9918719  65.9383785  84.0550542 181.3009619  72.1071353
  82.5126585 182.1815741  71.9167896  83.4656181 184.1020562  73.2141876
  85.0008946 183.2407973  73.3662741  83.7627371 181.4480534  74.6580741
  82.2824861 182.4060040  74.4975076  83.4425385 184.3593520  75.5754737
  84.9015863 183.3854758  75.7551921  83.6506746 181.7888177  77.2258960
  82.1959449 182.7811222  77.0498867  83.4221845 184.7502742  78.0046315
  84.8724190 183.7628191  78.1801142  83.6417463 182.2271405  79.7281609
  82.1900940 183.2163802  79.5546289  84.8703060 184.1916532  80.6811465
  83.4219239 183.7982630  81.6252081  83.4057895 185.1804461  80.5145654
  83.9820188 182.5022503  68.5963470  82.4839227 182.2232412  69.4959758
  84.9607693 180.4389571  69.1002213  83.4350396 180.2329919  68.4878611
  84.0940450 179.8437473  71.4658266  83.8317210 178.6281249  70.2824305
  81.6465027 180.6894618  70.9509114  81.7898804 179.1206479  71.7274419
  81.6763368 177.9711193  69.5597989  81.6659557 179.4947440  68.6877341
  79.5132828 180.1370481  69.6263643  79.4344417 178.6079961  70.5187257
  79.7291578 177.3596438  68.3353391  79.7747045 178.8921868  67.4697974
  77.4158941 177.8901213  69.1315216  77.5351444 177.8560585  67.3595859
  77.4681053 179.4123538  68.2123582  92.0000000 175.6220000  63.0000000
  81.5850000 187.5860000  72.2970000  87.8528435 190.0892258  73.2358018
  86.3236208 190.0983423  73.2358476  85.7589748 188.6763454  73.2349514
  84.2307844 188.6829019  73.2343803  83.6592430 187.2830000  73.2340000
  82.3050000 187.2830000  73.2340000  84.3094269 186.2507992  73.2334242
  81.3980000 188.1870000  70.4390000  81.0269627 188.1866082  71.5724083
  81.0239482 187.5706945  73.2364991  88.2220424 189.5548952  74.1192020
  88.2227372 189.5539623  72.3542715  85.9602267 190.6379011  72.3534328
  85.9591634 190.6379044  74.1183625  86.1251151 188.1324740  74.1139224
  86.1250361 188.1339952  72.3537225  83.8635586 189.2013983  72.3421832
  83.8637875 189.2008719  74.1276810  81.9127631 188.1763881  73.2340000
  90.5310000 178.4210000  86.5410000  91.9807774 185.5222005  87.9671438
  90.4716515 185.4367848  87.8802115  89.9119757 184.5336163  88.9712000
  88.4132477 184.4780210  88.8043451  87.7941405 183.6112373  89.8773042
  86.2878159 183.7431808  89.8027451  85.6700844 182.9420000  88.6540000
  84.1240000 182.9420000  88.6540000  83.5166962 184.3687263  88.6540000
  84.0145752 185.2952788  87.5414628  83.4598467 186.7087891  87.7640727
  83.9673630 187.6722987  86.6960697  83.4154346 189.0834171  86.9168251
  83.9239851 190.0236350  85.8216481  83.3772930 191.4387717  85.9987523
  83.8898686 192.3561607  84.9008111  83.6005855 182.2921111  90.0010708
  83.9194433 183.1100878  91.2454143  83.3773105 182.4704233  92.5198002
  83.8053195 183.3343543  93.6999314  83.2890424 182.8130436  95.0345243
  83.7769724 183.7268103  96.1582741  83.2875095 183.2480681  97.5154484
  83.7753657 184.1590514  98.6293876  83.5691881 182.0713906  87.4876574
  83.9227005 180.5855280  87.3774780  83.5289989 179.6508091  88.5259994
  82.0209551 179.6661187  88.7809279  81.3464240 179.0162166  87.5904070
  79.8380012 179.0869084  87.5990253  79.3578935 178.3913068  86.3275470
  77.8498128 178.3880083  86.2354067  90.0690000 178.6890000  85.5860000
  89.9920455 178.3183397  85.5936543  89.9095611 177.9864972  87.3335043
  92.2759754 185.9236320  88.9428291  92.4161727 184.5202427  87.8774485
  90.1689720 185.0496836  86.9000912  90.0298237 186.4364455  87.9798742
  90.1752239 184.9268512  89.9582884  90.3404698 183.5247144  88.8919043
  88.1563187 184.0927845  87.8175598  87.9998951 185.4960287  88.8753450
  88.1282658 183.9492563  90.8635970  88.1083866 182.5657500  89.7735358
  85.9987068 184.7989578  89.7575596  85.9756052 183.4013389  90.7698530
  85.9903425 181.8989625  88.7033618  85.9843881 183.3444737  87.6862644
  83.7632357 184.8376140  89.5964736  82.4283203 184.2546983  88.6002458
  83.6940002 184.9427926  86.5554638  85.1077742 185.3515951  87.5329587
  83.7639731 187.0685757  88.7551851  82.3635120 186.6792478  87.7516420
  83.6729548 187.3107877  85.7062164  85.0635354 187.7027619  86.7205471
  83.7210479 189.4521915  87.8905016  82.3187292 189.0587877  86.9012742
  83.6275892 189.6368654  84.8403420  85.0200986 190.0482493  85.8433350
  83.6777766 191.8377647  86.9747785  82.2820217 191.4223078  85.9753739
  84.9829208 192.4194951  84.9213196  83.4870697 193.3648999  85.0293585
  83.5868333 191.9918719  83.9133785  84.0550542 181.3009619  90.0821353
  82.5126585 182.1815741  89.8917896  83.4656181 184.1020562  91.1891876
  85.0008946 183.2407973  91.3412741  83.7627371 181.4480534  92.6330741
  82.2824861 182.4060040  92.4725076  83.4425385 184.3593520  93.5504737
  84.9015863 183.3854758  93.7301921  83.6506746 181.7888177  95.2008960
  82.1959449 182.7811222  95.0248867  83.4221845 184.7502742  95.9796315
  84.8724190 183.7628191  96.1551142  83.6417463 182.2271405  97.7031609
  82.1900940 183.2163802  97.5296289  84.8703060 184.1916532  98.6561465
  83.4219239 183.7982630  99.6002081  83.4057895 185.1804461  98.4895654
  83.9820188 182.5022503  86.5713470  82.4839227 182.2232412  87.4709758
  84.9607693 180.4389571  87.0752213  83.4350396 180.2329919  86.4628611
  84.0940450 179.8437473  89.4408266  83.8317210 178.6281249  88.2574305
  81.6465027 180.6894618  88.9259114  81.7898804 179.1206479  89.7024419
  81.6763368 177.9711193  87.5347989  81.6659557 179.4947440  86.6627341
  79.5132828 180.1370481  87.6013643  79.4344417 178.6079961  88.4937257
  79.7291578 177.3596438  86.3103391  79.7747045 178.8921868  85.4447974
  77.4158941 177.8901213  87.1065216  77.5351444 177.8560585  85.3345859
  77.4681053 179.4123538  86.1873582  92.0000000 175.6220000  80.9750000
  81.5850000 187.5860000  90.2720000  87.8528435 190.0892258  91.2108018
  86.3236208 190.0983423  91.2108476  85.7589748 188.6763454  91.2099514
  84.2307844 188.6829019  91.2093803  83.6592430 187.2830000  91.2090000
  82.3050000 187.2830000  91.2090000  84.3094269 186.2507992  91.2084242
  81.3980000 188.1870000  88.4140000  81.0269627 188.1866082  89.5474083
  81.0239482 187.5706945  91.2114991  88.2220424 189.5548952  92.0942020
  88.2227372 189.5539623  90.3292715  85.9602267 190.6379011  90.3284328
  85.9591634 190.6379044  92.0933625  86.1251151 188.1324740  92.0889224
  86.1250361 188.1339952  90.3287225  83.8635586 189.2013983  90.3171832
  83.8637875 189.2008719  92.1026810  81.9127631 188.1763881  91.2090000
  90.5310000 178.4210000 104.5160000  91.9807774 185.5222005 105.9421438
  90.4716515 185.4367848 105.8552115  89.9119757 184.5336163 106.9462000
  88.4132477 184.4780210 106.7793451  87.7941405 183.6112373 107.8523042
  86.2878159 183.7431808 107.7777451  85.6700844 182.9420000 106.6290000
  84.1240000 182.9420000 106.6290000  83.5166962 184.3687263 106.6290000
  84.0145752 185.2952788 105.5164628  83.4598467 186.7087891 105.7390727
  83.9673630 187.6722987 104.6710697  83.4154346 189.0834171 104.8918251
  83.9239851 190.0236350 103.7966481  83.3772930 191.4387717 103.9737523
  83.8898686 192.3561607 102.8758111  83.6005855 182.2921111 107.9760708
  83.9194433 183.1100878 109.2204143  83.3773105 182.4704233 110.4948002
  83.8053195 183.3343543 111.6749314  83.2890424 182.8130436 113.0095243
  83.7769724 183.7268103 114.1332741  83.2875095 183.2480681 115.4904484
  83.7753657 184.1590514 116.6043876  83.5691881 182.0713906 105.4626574
  83.9227005 180.5855280 105.3524780  83.5289989 179.6508091 106.5009994
  82.0209551 179.6661187 106.7559279  81.3464240 179.0162166 105.5654070
  79.8380012 179.0869084 105.5740253  79.3578935 178.3913068 104.3025470
  77.8498128 178.3880083 104.2104067  90.0690000 178.6890000 103.5610000
  89.9920455 178.3183397 103.5686543  89.9095611 177.9864972 105.3085043
  92.2759754 185.9236320 106.9178291  92.4161727 184.5202427 105.8524485
  90.1689720 185.0496836 104.8750912  90.0298237 186.4364455 105.9548742
  90.1752239 184.9268512 107.9332884  90.3404698 183.5247144 106.8669043
  88.1563187 184.0927845 105.7925598  87.9998951 185.4960287 106.8503450
  88.1282658 183.9492563 108.8385970  88.1083866 182.5657500 107.7485358
  85.9987068 184.7989578 107.7325596  85.9756052 183.4013389 108.7448530
  85.9903425 181.8989625 106.6783618  85.9843881 183.3444737 105.6612644
  83.7632357 184.8376140 107.5714736  82.4283203 184.2546983 106.5752458
  83.6940002 184.9427926 104.5304638  85.1077742 185.3515951 105.5079587
  83.7639731 187.0685757 106.7301851  82.3635120 186.6792478 105.7266420
  83.6729548 187.3107877 103.6812164  85.0635354 187.7027619 104.6955471
  83.7210479 189.4521915 105.8655016  82.3187292 189.0587877 104.8762742
  83.6275892 189.6368654 102.8153420  85.0200986 190.0482493 103.8183350
  83.6777766 191.8377647 104.9497785  82.2820217 191.4223078 103.9503739
  84.9829208 192.4194951 102.8963196  83.4870697 193.3648999 103.0043585
  83.5868333 191.9918719 101.8883785  84.0550542 181.3009619 108.0571353
  82.5126585 182.1815741 107.8667896  83.4656181 184.1020562 109.1641876
  85.0008946 183.2407973 109.3162741  83.7627371 181.4480534 110.6080741
  82.2824861 182.4060040 110.4475076  83.4425385 184.3593520 111.5254737
  84.9015863 183.3854758 111.7051921  83.6506746 181.7888177 113.1758960
  82.1959449 182.7811222 112.9998867  83.4221845 184.7502742 113.9546315
  84.8724190 183.7628191 114.1301142  83.6417463 182.2271405 115.6781609
  82.1900940 183.2163802 115.5046289  84.8703060 184.1916532 116.6311465
  83.4219239 183.7982630 117.5752081  83.4057895 185.1804461 116.4645654
  83.9820188 182.5022503 104.5463470  82.4839227 182.2232412 105.4459758
  84.9607693 180.4389571 105.0502213  83.4350396 180.2329919 104.4378611
  84.0940450 179.8437473 107.4158266  83.8317210 178.6281249 106.2324305
  81.6465027 180.6894618 106.9009114  81.7898804 179.1206479 107.6774419
  81.6763368 177.9711193 105.5097989  81.6659557 179.4947440 104.6377341
  79.5132828 180.1370481 105.5763643  79.4344417 178.6079961 106.4687257
  79.7291578 177.3596438 104.2853391  79.7747045 178.8921868 103.4197974
  77.4158941 177.8901213 105.0815216  77.5351444 177.8560585 103.3095859
  77.4681053 179.4123538 104.1623582  92.0000000 175.6220000  98.9500000
  81.5850000 187.5860000 108.2470000  87.8528435 190.0892258 109.1858018
  86.3236208 190.0983423 109.1858476  85.7589748 188.6763454 109.1849514
  84.2307844 188.6829019 109.1843803  83.6592430 187.2830000 109.1840000
  82.3050000 187.2830000 109.1840000  84.3094269 186.2507992 109.1834242
  81.3980000 188.1870000 106.3890000  81.0269627 188.1866082 107.5224083
  81.0239482 187.5706945 109.1864991  88.2220424 189.5548952 110.0692020
  88.2227372 189.5539623 108.3042715  85.9602267 190.6379011 108.3034328
  85.9591634 190.6379044 110.0683625  86.1251151 188.1324740 110.0639224
  86.1250361 188.1339952 108.3037225  83.8635586 189.2013983 108.2921832
  83.8637875 189.2008719 110.0776810  81.9127631 188.1763881 109.1840000
  90.5310000 178.4210000 122.4900000  91.9807774 185.5222005 123.9161438
  90.4716515 185.4367848 123.8292115  89.9119757 184.5336163 124.9202000
  88.4132477 184.4780210 124.7533451  87.7941405 183.6112373 125.8263042
  86.2878159 183.7431808 125.7517451  85.6700844 182.9420000 124.6030000
  84.1240000 182.9420000 124.6030000  83.5166962 184.3687263 124.6030000
  84.0145752 185.2952788 123.4904628  83.4598467 186.7087891 123.7130727
  83.9673630 187.6722987 122.6450697  83.4154346 189.0834171 122.8658251
  83.9239851 190.0236350 121.7706481  83.3772930 191.4387717 121.9477523
  83.8898686 192.3561607 120.8498111  83.6005855 182.2921111 125.9500708
  83.9194433 183.1100878 127.1944143  83.3773105 182.4704233 128.4688002
  83.8053195 183.3343543 129.6489314  83.2890424 182.8130436 130.9835243
  83.7769724 183.7268103 132.1072741  83.2875095 183.2480681 133.4644484
  83.7753657 184.1590514 134.5783876  83.5691881 182.0713906 123.4366574
  83.9227005 180.5855280 123.3264780  83.5289989 179.6508091 124.4749994
  82.0209551 179.6661187 124.7299279  81.3464240 179.0162166 123.5394070
  79.8380012 179.0869084 123.5480253  79.3578935 178.3913068 122.2765470
  77.8498128 178.3880083 122.1844067  90.0690000 178.6890000 121.5350000
  89.9920455 178.3183397 121.5426543  89.9095611 177.9864972 123.2825043
  92.2759754 185.9236320 124.8918291  92.4161727 184.5202427 123.8264485
  90.1689720 185.0496836 122.8490912  90.0298237 186.4364455 123.9288742
  90.1752239 184.9268512 125.9072884  90.3404698 183.5247144 124.8409043
  88.1563187 184.0927845 123.7665598  87.9998951 185.4960287 124.8243450
  88.1282658 183.9492563 126.8125970  88.1083866 182.5657500 125.7225358
  85.9987068 184.7989578 125.7065596  85.9756052 183.4013389 126.7188530
  85.9903425 181.8989625 124.6523618  85.9843881 183.3444737 123.6352644
  83.7632357 184.8376140 125.5454736  82.4283203 184.2546983 124.5492458
  83.6940002 184.9427926 122.5044638  85.1077742 185.3515951 123.4819587
  83.7639731 187.0685757 124.7041851  82.3635120 186.6792478 123.7006420
  83.6729548 187.3107877 121.6552164  85.0635354 187.7027619 122.6695471
  83.7210479 189.4521915 123.8395016  82.3187292 189.0587877 122.8502742
  83.6275892 189.6368654 120.7893420  85.0200986 190.0482493 121.7923350
  83.6777766 191.8377647 122.9237785  82.2820217 191.4223078 121.9243739
  84.9829208 192.4194951 120.8703196  83.4870697 193.3648999 120.9783585
  83.5868333 191.9918719 119.8623785  84.0550542 181.3009619 126.0311353
  82.5126585 182.1815741 125.8407896  83.4656181 184.1020562 127.1381876
  85.0008946 183.2407973 127.2902741  83.7627371 181.4480534 128.5820741
  82.2824861 182.4060040 128.4215076  83.4425385 184.3593520 129.4994737
  84.9015863 183.3854758 129.6791921  83.6506746 181.7888177 131.1498960
  82.1959449 182.7811222 130.9738867  83.4221845 184.7502742 131.9286315
  84.8724190 183.7628191 132.1041142  83.6417463 182.2271405 133.6521609
  82.1900940 183.2163802 133.4786289  84.8703060 184.1916532 134.6051465
  83.4219239 183.7982630 135.5492081  83.4057895 185.1804461 134.4385654
  83.9820188 182.5022503 122.5203470  82.4839227 182.2232412 123.4199758
  84.9607693 180.4389571 123.0242213  83.4350396 180.2329919 122.4118611
  84.0940450 179.8437473 125.3898266  83.8317210 178.6281249 124.2064305
  81.6465027 180.6894618 124.8749114  81.7898804 179.1206479 125.6514419
  81.6763368 177.9711193 123.4837989  81.6659557 179.4947440 122.6117341
  79.5132828 180.1370481 123.5503643  79.4344417 178.6079961 124.4427257
  79.7291578 177.3596438 122.2593391  79.7747045 178.8921868 121.3937974
  77.4158941 177.8901213 123.0555216  77.5351444 177.8560585 121.2835859
  77.4681053 179.4123538 122.1363582  92.0000000 175.6220000 116.9240000
  81.5850000 187.5860000 126.2210000  87.8528435 190.0892258 127.1598018
  86.3236208 190.0983423 127.1598476  85.7589748 188.6763454 127.1589514
  84.2307844 188.6829019 127.1583803  83.6592430 187.2830000 127.1580000
  82.3050000 187.2830000 127.1580000  84.3094269 186.2507992 127.1574242
  81.3980000 188.1870000 124.3630000  81.0269627 188.1866082 125.4964083
  81.0239482 187.5706945 127.1604991  88.2220424 189.5548952 128.0432020
  88.2227372 189.5539623 126.2782715  85.9602267 190.6379011 126.2774328
  85.9591634 190.6379044 128.0423625  86.1251151 188.1324740 128.0379224
  86.1250361 188.1339952 126.2777225  83.8635586 189.2013983 126.2661832
  83.8637875 189.2008719 128.0516810  81.9127631 188.1763881 127.1580000
  90.5310000 178.4210000 140.4650000  91.9807774 185.5222005 141.8911438
  90.4716515 185.4367848 141.8042115  89.9119757 184.5336163 142.8952000
  88.4132477 184.4780210 142.7283451  87.7941405 183.6112373 143.8013042
  86.2878159 183.7431808 143.7267451  85.6700844 182.9420000 142.5780000
  84.1240000 182.9420000 142.5780000  83.5166962 184.3687263 142.5780000
  84.0145752 185.2952788 141.4654628  83.4598467 186.7087891 141.6880727
  83.9673630 187.6722987 140.6200697  83.4154346 189.0834171 140.8408251
  83.9239851 190.0236350 139.7456481  83.3772930 191.4387717 139.9227523
  83.8898686 192.3561607 138.8248111  83.6005855 182.2921111 143.9250708
  83.9194433 183.1100878 145.1694143  83.3773105 182.4704233 146.4438002
  83.8053195 183.3343543 147.6239314  83.2890424 182.8130436 148.9585243
  83.7769724 183.7268103 150.0822741  83.2875095 183.2480681 151.4394484
  83.7753657 184.1590514 152.5533876  83.5691881 182.0713906 141.4116574
  83.9227005 180.5855280 141.3014780  83.5289989 179.6508091 142.4499994
  82.0209551 179.6661187 142.7049279  81.3464240 179.0162166 141.5144070
  79.8380012 179.0869084 141.5230253  79.3578935 178.3913068 140.2515470
  77.8498128 178.3880083 140.1594067  90.0690000 178.6890000 139.5100000
  89.9920455 178.3183397 139.5176543  89.9095611 177.9864972 141.2575043
  92.2759754 185.9236320 142.8668291  92.4161727 184.5202427 141.8014485
  90.1689720 185.0496836 140.8240912  90.0298237 186.4364455 141.9038742
  90.1752239 184.9268512 143.8822884  90.3404698 183.5247144 142.8159043
  88.1563187 184.0927845 141.7415598  87.9998951 185.4960287 142.7993450
  88.1282658 183.9492563 144.7875970  88.1083866 182.5657500 143.6975358
  85.9987068 184.7989578 143.6815596  85.9756052 183.4013389 144.6938530
  85.9903425 181.8989625 142.6273618  85.9843881 183.3444737 141.6102644
  83.7632357 184.8376140 143.5204736  82.4283203 184.2546983 142.5242458
  83.6940002 184.9427926 140.4794638  85.1077742 185.3515951 141.4569587
  83.7639731 187.0685757 142.6791851  82.3635120 186.6792478 141.6756420
  83.6729548 187.3107877 139.6302164  85.0635354 187.7027619 140.6445471
  83.7210479 189.4521915 141.8145016  82.3187292 189.0587877 140.8252742
  83.6275892 189.6368654 138.7643420  85.0200986 190.0482493 139.7673350
  83.6777766 191.8377647 140.8987785  82.2820217 191.4223078 139.8993739
  84.9829208 192.4194951 138.8453196  83.4870697 193.3648999 138.9533585
  83.5868333 191.9918719 137.8373785  84.0550542 181.3009619 144.0061353
  82.5126585 182.1815741 143.8157896  83.4656181 184.1020562 145.1131876
  85.0008946 183.2407973 145.2652741  83.7627371 181.4480534 146.5570741
  82.2824861 182.4060040 146.3965076  83.4425385 184.3593520 147.4744737
  84.9015863 183.3854758 147.6541921  83.6506746 181.7888177 149.1248960
  82.1959449 182.7811222 148.9488867  83.4221845 184.7502742 149.9036315
  84.8724190 183.7628191 150.0791142  83.6417463 182.2271405 151.6271609
  82.1900940 183.2163802 151.4536289  84.8703060 184.1916532 152.5801465
  83.4219239 183.7982630 153.5242081  83.4057895 185.1804461 152.4135654
  83.9820188 182.5022503 140.4953470  82.4839227 182.2232412 141.3949758
  84.9607693 180.4389571 140.9992213  83.4350396 180.2329919 140.3868611
  84.0940450 179.8437473 143.3648266  83.8317210 178.6281249 142.1814305
  81.6465027 180.6894618 142.8499114  81.7898804 179.1206479 143.6264419
  81.6763368 177.9711193 141.4587989  81.6659557 179.4947440 140.5867341
  79.5132828 180.1370481 141.5253643  79.4344417 178.6079961 142.4177257
  79.7291578 177.3596438 140.2343391  79.7747045 178.8921868 139.3687974
  77.4158941 177.8901213 141.0305216  77.5351444 177.8560585 139.2585859
  77.4681053 179.4123538 140.1113582  92.0000000 175.6220000 134.8990000
  81.5850000 187.5860000 144.1960000  87.8528435 190.0892258 145.1348018
  86.3236208 190.0983423 145.1348476  85.7589748 188.6763454 145.1339514
  84.2307844 188.6829019 145.1333803  83.6592430 187.2830000 145.1330000
  82.3050000 187.2830000 145.1330000  84.3094269 186.2507992 145.1324242
  81.3980000 188.1870000 142.3380000  81.0269627 188.1866082 143.4714083
  81.0239482 187.5706945 145.1354991  88.2220424 189.5548952 146.0182020
  88.2227372 189.5539623 144.2532715  85.9602267 190.6379011 144.2524328
  85.9591634 190.6379044 146.0173625  86.1251151 188.1324740 146.0129224
  86.1250361 188.1339952 144.2527225  83.8635586 189.2013983 144.2411832
  83.8637875 189.2008719 146.0266810  81.9127631 188.1763881 145.1330000
  90.5310000 178.4210000 158.4400000  91.9807774 185.5222005 159.8661438
  90.4716515 185.4367848 159.7792115  89.9119757 184.5336163 160.8702000
  88.4132477 184.4780210 160.7033451  87.7941405 183.6112373 161.7763042
  86.2878159 183.7431808 161.7017451  85.6700844 182.9420000 160.5530000
  84.1240000 182.9420000 160.5530000  83.5166962 184.3687263 160.5530000
  84.0145752 185.2952788 159.4404628  83.4598467 186.7087891 159.6630727
  83.9673630 187.6722987 158.5950697  83.4154346 189.0834171 158.8158251
  83.9239851 190.0236350 157.7206481  83.3772930 191.4387717 157.8977523
  83.8898686 192.3561607 156.7998111  83.6005855 182.2921111 161.9000708
  83.9194433 183.1100878 163.1444143  83.3773105 182.4704233 164.4188002
  83.8053195 183.3343543 165.5989314  83.2890424 182.8130436 166.9335243
  83.7769724 183.7268103 168.0572741  83.2875095 183.2480681 169.4144484
  83.7753657 184.1590514 170.5283876  83.5691881 182.0713906 159.3866574
  83.9227005 180.5855280 159.2764780  83.5289989 179.6508091 160.4249994
  82.0209551 179.6661187 160.6799279  81.3464240 179.0162166 159.4894070
  79.8380012 179.0869084 159.4980253  79.3578935 178.3913068 158.2265470
  77.8498128 178.3880083 158.1344067  90.0690000 178.6890000 157.4850000
  89.9920455 178.3183397 157.4926543  89.9095611 177.9864972 159.2325043
  92.2759754 185.9236320 160.8418291  92.4161727 184.5202427 159.7764485
  90.1689720 185.0496836 158.7990912  90.0298237 186.4364455 159.8788742
  90.1752239 184.9268512 161.8572884  90.3404698 183.5247144 160.7909043
  88.1563187 184.0927845 159.7165598  87.9998951 185.4960287 160.7743450
  88.1282658 183.9492563 162.7625970  88.1083866 182.5657500 161.6725358
  85.9987068 184.7989578 161.6565596  85.9756052 183.4013389 162.6688530
  85.9903425 181.8989625 160.6023618  85.9843881 183.3444737 159.5852644
  83.7632357 184.8376140 161.4954736  82.4283203 184.2546983 160.4992458
  83.6940002 184.9427926 158.4544638  85.1077742 185.3515951 159.4319587
  83.7639731 187.0685757 160.6541851  82.3635120 186.6792478 159.6506420
  83.6729548 187.3107877 157.6052164  85.0635354 187.7027619 158.6195471
  83.7210479 189.4521915 159.7895016  82.3187292 189.0587877 158.8002742
  83.6275892 189.6368654 156.7393420  85.0200986 190.0482493 157.7423350
  83.6777766 191.8377647 158.8737785  82.2820217 191.4223078 157.8743739
  84.9829208 192.4194951 156.8203196  83.4870697 193.3648999 156.9283585
  83.5868333 191.9918719 155.8123785  84.0550542 181.3009619 161.9811353
  82.5126585 182.1815741 161.7907896  83.4656181 184.1020562 163.0881876
  85.0008946 183.2407973 163.2402741  83.7627371 181.4480534 164.5320741
  82.2824861 182.4060040 164.3715076  83.4425385 184.3593520 165.4494737
  84.9015863 183.3854758 165.6291921  83.6506746 181.7888177 167.0998960
  82.1959449 182.7811222 166.9238867  83.4221845 184.7502742 167.8786315
  84.8724190 183.7628191 168.0541142  83.6417463 182.2271405 169.6021609
  82.1900940 183.2163802 169.4286289  84.8703060 184.1916532 170.5551465
  83.4219239 183.7982630 171.4992081  83.4057895 185.1804461 170.3885654
  83.9820188 182.5022503 158.4703470  82.4839227 182.2232412 159.3699758
  84.9607693 180.4389571 158.9742213  83.4350396 180.2329919 158.3618611
  84.0940450 179.8437473 161.3398266  83.8317210 178.6281249 160.1564305
  81.6465027 180.6894618 160.8249114  81.7898804 179.1206479 161.6014419
  81.6763368 177.9711193 159.4337989  81.6659557 179.4947440 158.5617341
  79.5132828 180.1370481 159.5003643  79.4344417 178.6079961 160.3927257
  79.7291578 177.3596438 158.2093391  79.7747045 178.8921868 157.3437974
  77.4158941 177.8901213 159.0055216  77.5351444 177.8560585 157.2335859
  77.4681053 179.4123538 158.0863582  92.0000000 175.6220000 152.8740000
  81.5850000 187.5860000 162.1710000  87.8528435 190.0892258 163.1098018
  86.3236208 190.0983423 163.1098476  85.7589748 188.6763454 163.1089514
  84.2307844 188.6829019 163.1083803  83.6592430 187.2830000 163.1080000
  82.3050000 187.2830000 163.1080000  84.3094269 186.2507992 163.1074242
  81.3980000 188.1870000 160.3130000  81.0269627 188.1866082 161.4464083
  81.0239482 187.5706945 163.1104991  88.2220424 189.5548952 163.9932020
  88.2227372 189.5539623 162.2282715  85.9602267 190.6379011 162.2274328
  85.9591634 190.6379044 163.9923625  86.1251151 188.1324740 163.9879224
  86.1250361 188.1339952 162.2277225  83.8635586 189.2013983 162.2161832
  83.8637875 189.2008719 164.0016810  81.9127631 188.1763881 163.1080000
  90.5310000 178.4210000 176.4150000  91.9807774 185.5222005 177.8411438
  90.4716515 185.4367848 177.7542115  89.9119757 184.5336163 178.8452000
  88.4132477 184.4780210 178.6783451  87.7941405 183.6112373 179.7513042
  86.2878159 183.7431808 179.6767451  85.6700844 182.9420000 178.5280000
  84.1240000 182.9420000 178.5280000  83.5166962 184.3687263 178.5280000
  84.0145752 185.2952788 177.4154628  83.4598467 186.7087891 177.6380727
  83.9673630 187.6722987 176.5700697  83.4154346 189.0834171 176.7908251
  83.9239851 190.0236350 175.6956481  83.3772930 191.4387717 175.8727523
  83.8898686 192.3561607 174.7748111  83.6005855 182.2921111 179.8750708
  83.9194433 183.1100878 181.1194143  83.3773105 182.4704233 182.3938002
  83.8053195 183.3343543 183.5739314  83.2890424 182.8130436 184.9085243
  83.7769724 183.7268103 186.0322741  83.2875095 183.2480681 187.3894484
  83.7753657 184.1590514 188.5033876  83.5691881 182.0713906 177.3616574
  83.9227005 180.5855280 177.2514780  83.5289989 179.6508091 178.3999994
  82.0209551 179.6661187 178.6549279  81.3464240 179.0162166 177.4644070
  79.8380012 179.0869084 177.4730253  79.3578935 178.3913068 176.2015470
  77.8498128 178.3880083 176.1094067  90.0690000 178.6890000 175.4600000
  89.9920455 178.3183397 175.4676543  89.9095611 177.9864972 177.2075043
  92.2759754 185.9236320 178.8168291  92.4161727 184.5202427 177.7514485
  90.1689720 185.0496836 176.7740912  90.0298237 186.4364455 177.8538742
  90.1752239 184.9268512 179.8322884  90.3404698 183.5247144 178.7659043
  88.1563187 184.0927845 177.6915598  87.9998951 185.4960287 178.7493450
  88.1282658 183.9492563 180.7375970  88.1083866 182.5657500 179.6475358
  85.9987068 184.7989578 179.6315596  85.9756052 183.4013389 180.6438530
  85.9903425 181.8989625 178.5773618  85.9843881 183.3444737 177.5602644
  83.7632357 184.8376140 179.4704736  82.4283203 184.2546983 178.4742458
  83.6940002 184.9427926 176.4294638  85.1077742 185.3515951 177.4069587
  83.7639731 187.0685757 178.6291851  82.3635120 186.6792478 177.6256420
  83.6729548 187.3107877 175.5802164  85.0635354 187.7027619 176.5945471
  83.7210479 189.4521915 177.7645016  82.3187292 189.0587877 176.7752742
  83.6275892 189.6368654 174.7143420  85.0200986 190.0482493 175.7173350
  83.6777766 191.8377647 176.8487785  82.2820217 191.4223078 175.8493739
  84.9829208 192.4194951 174.7953196  83.4870697 193.3648999 174.9033585
  83.5868333 191.9918719 173.7873785  84.0550542 181.3009619 179.9561353
  82.5126585 182.1815741 179.7657896  83.4656181 184.1020562 181.0631876
  85.0008946 183.2407973 181.2152741  83.7627371 181.4480534 182.5070741
  82.2824861 182.4060040 182.3465076  83.4425385 184.3593520 183.4244737
  84.9015863 183.3854758 183.6041921  83.6506746 181.7888177 185.0748960
  82.1959449 182.7811222 184.8988867  83.4221845 184.7502742 185.8536315
  84.8724190 183.7628191 186.0291142  83.6417463 182.2271405 187.5771609
  82.1900940 183.2163802 187.4036289  84.8703060 184.1916532 188.5301465
  83.4219239 183.7982630 189.4742081  83.4057895 185.1804461 188.3635654
  83.9820188 182.5022503 176.4453470  82.4839227 182.2232412 177.3449758
  84.9607693 180.4389571 176.9492213  83.4350396 180.2329919 176.3368611
  84.0940450 179.8437473 179.3148266  83.8317210 178.6281249 178.1314305
  81.6465027 180.6894618 178.7999114  81.7898804 179.1206479 179.5764419
  81.6763368 177.9711193 177.4087989  81.6659557 179.4947440 176.5367341
  79.5132828 180.1370481 177.4753643  79.4344417 178.6079961 178.3677257
  79.7291578 177.3596438 176.1843391  79.7747045 178.8921868 175.3187974
  77.4158941 177.8901213 176.9805216  77.5351444 177.8560585 175.2085859
  77.4681053 179.4123538 176.0613582  92.0000000 175.6220000 170.8490000
  81.5850000 187.5860000 180.1460000  87.8528435 190.0892258 181.0848018
  86.3236208 190.0983423 181.0848476  85.7589748 188.6763454 181.0839514
  84.2307844 188.6829019 181.0833803  83.6592430 187.2830000 181.0830000
  82.3050000 187.2830000 181.0830000  84.3094269 186.2507992 181.0824242
  81.3980000 188.1870000 178.2880000  81.0269627 188.1866082 179.4214083
  81.0239482 187.5706945 181.0854991  88.2220424 189.5548952 181.9682020
  88.2227372 189.5539623 180.2032715  85.9602267 190.6379011 180.2024328
  85.9591634 190.6379044 181.9673625  86.1251151 188.1324740 181.9629224
  86.1250361 188.1339952 180.2027225  83.8635586 189.2013983 180.1911832
  83.8637875 189.2008719 181.9766810  81.9127631 188.1763881 181.0830000
 110.6800000  66.7990000  68.5660000 112.1297774  73.9002005  69.9921438
 110.6206515  73.8147848  69.9052115 110.0609757  72.9116163  70.9962000
 108.5622477  72.8560210  70.8293451 107.9431405  71.9892373  71.9023042
 106.4368159  72.1211808  71.8277451 105.8190844  71.3200000  70.6790000
 104.2730000  71.3200000  70.6790000 103.6656962  72.7467263  70.6790000
 104.1635752  73.6732788  69.5664628 103.6088467  75.0867891  69.7890727
 104.1163630  76.0502987  68.7210697 103.5644346  77.4614171  68.9418251
 104.0729851  78.4016350  67.8466481 103.5262930  79.8167717  68.0237523
 104.0388686  80.7341607  66.9258111 103.7495855  70.6701111  72.0260708
 104.0684433  71.4880878  73.2704143 103.5263105  70.8484234  74.5448002
 103.9543195  71.7123543  75.7249314 103.4380424  71.1910436  77.0595243
 103.9259725  72.1048104  78.1832741 103.4365096  71.6260682  79.5404484
 103.9243658  72.5370515  80.6543876 103.7181881  70.4493906  69.5126574
 104.0717005  68.9635280  69.4024780 103.6779988  68.0288091  70.5509995
 102.1699550  68.0441187  70.8059279 101.4954239  67.3942166  69.6154070
  99.9870011  67.4649084  69.6240254  99.5068934  66.7693069  68.3525471
  97.9988128  66.7660083  68.2604068 110.2180000  67.0670000  67.6110000
 110.1410455  66.6963397  67.6186543 110.0585611  66.3644972  69.3585043
 112.4249754  74.3016320  70.9678291 112.5651727  72.8982427  69.9024485
 110.3179720  73.4276836  68.9250912 110.1788237  74.8144455  70.0048742
 110.3242239  73.3048512  71.9832884 110.4894698  71.9027144  70.9169043
 108.3053187  72.4707845  69.8425598 108.1488951  73.8740287  70.9003450
 108.2772658  72.3272563  72.8885970 108.2573866  70.9437500  71.7985358
 106.1477068  73.1769578  71.7825596 106.1246052  71.7793389  72.7948530
 106.1393425  70.2769625  70.7283618 106.1333881  71.7224737  69.7112644
 103.9122357  73.2156140  71.6214736 102.5773203  72.6326983  70.6252458
 103.8430002  73.3207926  68.5804638 105.2567742  73.7295951  69.5579587
 103.9129731  75.4465757  70.7801851 102.5125120  75.0572478  69.7766420
 103.8219548  75.6887877  67.7312164 105.2125354  76.0807619  68.7455471
 103.8700479  77.8301915  69.9155016 102.4677292  77.4367877  68.9262742
 103.7765892  78.0148654  66.8653420 105.1690986  78.4262493  67.8683350
 103.8267766  80.2157647  68.9997785 102.4310217  79.8003078  68.0003739
 105.1319208  80.7974951  66.9463196 103.6360697  81.7428999  67.0543585
 103.7358333  80.3698719  65.9383785 104.2040542  69.6789619  72.1071353
 102.6616585  70.5595741  71.9167896 103.6146181  72.4800562  73.2141875
 105.1498946  71.6187973  73.3662741 103.9117371  69.8260534  74.6580741
 102.4314861  70.7840040  74.4975077 103.5915386  72.7373520  75.5754737
 105.0505863  71.7634758  75.7551920 103.7996747  70.1668178  77.2258961
 102.3449449  71.1591222  77.0498868 103.5711846  73.1282743  78.0046315
 105.0214191  72.1408192  78.1801142 103.7907464  70.6051405  79.7281609
 102.3390941  71.5943802  79.5546289 105.0193061  72.5696533  80.6811465
 103.5709240  72.1762630  81.6252081 103.5547896  73.5584462  80.5145654
 104.1310187  70.8802503  68.5963470 102.6329227  70.6012412  69.4959759
 105.1097693  68.8169570  69.1002213 103.5840395  68.6109919  68.4878611
 104.2430450  68.2217473  71.4658266 103.9807210  67.0061249  70.2824306
 101.7955027  69.0674619  70.9509115 101.9388803  67.4986479  71.7274420
 101.8253367  66.3491193  69.5597990 101.8149557  67.8727440  68.6877341
  99.6622828  68.5150482  69.6263644  99.5834417  66.9859961  70.5187258
  99.8781578  65.7376438  68.3353392  99.9237044  67.2701868  67.4697975
  97.5648940  66.2681213  69.1315217  97.6841443  66.2340585  67.3595860
  97.6171053  67.7903538  68.2123583 112.1490000  64.0000000  63.0000000
 101.7340000  75.9640000  72.2970000 108.0018435  78.4672258  73.2358018
 106.4726208  78.4763423  73.2358476 105.9079748  77.0543454  73.2349514
 104.3797844  77.0609019  73.2343803 103.8082430  75.6610000  73.2340000
 102.4540000  75.6610000  73.2340000 104.4584269  74.6287992  73.2334242
 101.5470000  76.5650000  70.4390000 101.1759627  76.5646082  71.5724083
 101.1729482  75.9486945  73.2364991 108.3710424  77.9328952  74.1192020
 108.3717372  77.9319623  72.3542715 106.1092267  79.0159011  72.3534328
 106.1081634  79.0159044  74.1183625 106.2741151  76.5104740  74.1139224
 106.2740361  76.5119952  72.3537225 104.0125586  77.5793983  72.3421832
 104.0127875  77.5788719  74.1276810 102.0617631  76.5543881  73.2340000
 110.6800000  66.7990000  86.5410000 112.1297774  73.9002005  87.9671438
 110.6206515  73.8147848  87.8802115 110.0609757  72.9116163  88.9712000
 108.5622477  72.8560210  88.8043451 107.9431405  71.9892373  89.8773042
 106.4368159  72.1211808  89.8027451 105.8190844  71.3200000  88.6540000
 104.2730000  71.3200000  88.6540000 103.6656962  72.7467263  88.6540000
 104.1635752  73.6732788  87.5414628 103.6088467  75.0867891  87.7640727
 104.1163630  76.0502987  86.6960697 103.5644346  77.4614171  86.9168251
 104.0729851  78.4016350  85.8216481 103.5262930  79.8167717  85.9987523
 104.0388686  80.7341607  84.9008111 103.7495855  70.6701111  90.0010708
 104.0684433  71.4880878  91.2454143 103.5263105  70.8484234  92.5198002
 103.9543195  71.7123543  93.6999314 103.4380424  71.1910436  95.0345243
 103.9259725  72.1048104  96.1582741 103.4365096  71.6260682  97.5154484
 103.9243658  72.5370515  98.6293876 103.7181881  70.4493906  87.4876574
 104.0717005  68.9635280  87.3774780 103.6779988  68.0288091  88.5259995
 102.1699550  68.0441187  88.7809279 101.4954239  67.3942166  87.5904070
  99.9870011  67.4649084  87.5990254  99.5068934  66.7693069  86.3275471
  97.9988128  66.7660083  86.2354068 110.2180000  67.0670000  85.5860000
 110.1410455  66.6963397  85.5936543 110.0585611  66.3644972  87.3335043
 112.4249754  74.3016320  88.9428291 112.5651727  72.8982427  87.8774485
 110.3179720  73.4276836  86.9000912 110.1788237  74.8144455  87.9798742
 110.3242239  73.3048512  89.9582884 110.4894698  71.9027144  88.8919043
 108.3053187  72.4707845  87.8175598 108.1488951  73.8740287  88.8753450
 108.2772658  72.3272563  90.8635970 108.2573866  70.9437500  89.7735358
 106.1477068  73.1769578  89.7575596 106.1246052  71.7793389  90.7698530
 106.1393425  70.2769625  88.7033618 106.1333881  71.7224737  87.6862644
 103.9122357  73.2156140  89.5964736 102.5773203  72.6326983  88.6002458
 103.8430002  73.3207926  86.5554638 105.2567742  73.7295951  87.5329587
 103.9129731  75.4465757  88.7551851 102.5125120  75.0572478  87.7516420
 103.8219548  75.6887877  85.7062164 105.2125354  76.0807619  86.7205471
 103.8700479  77.8301915  87.8905016 102.4677292  77.4367877  86.9012742
 103.7765892  78.0148654  84.8403420 105.1690986  78.4262493  85.8433350
 103.8267766  80.2157647  86.9747785 102.4310217  79.8003078  85.9753739
 105.1319208  80.7974951  84.9213196 103.6360697  81.7428999  85.0293585
 103.7358333  80.3698719  83.9133785 104.2040542  69.6789619  90.0821353
 102.6616585  70.5595741  89.8917896 103.6146181  72.4800562  91.1891875
 105.1498946  71.6187973  91.3412741 103.9117371  69.8260534  92.6330741
 102.4314861  70.7840040  92.4725077 103.5915386  72.7373520  93.5504737
 105.0505863  71.7634758  93.7301920 103.7996747  70.1668178  95.2008961
 102.3449449  71.1591222  95.0248868 103.5711846  73.1282743  95.9796315
 105.0214191  72.1408192  96.1551142 103.7907464  70.6051405  97.7031609
 102.3390941  71.5943802  97.5296289 105.0193061  72.5696533  98.6561465
 103.5709240  72.1762630  99.6002081 103.5547896  73.5584462  98.4895654
 104.1310187  70.8802503  86.5713470 102.6329227  70.6012412  87.4709759
 105.1097693  68.8169570  87.0752213 103.5840395  68.6109919  86.4628611
 104.2430450  68.2217473  89.4408266 103.9807210  67.0061249  88.2574306
 101.7955027  69.0674619  88.9259115 101.9388803  67.4986479  89.7024420
 101.8253367  66.3491193  87.5347990 101.8149557  67.8727440  86.6627341
  99.6622828  68.5150482  87.6013644  99.5834417  66.9859961  88.4937258
  99.8781578  65.7376438  86.3103392  99.9237044  67.2701868  85.4447975
  97.5648940  66.2681213  87.1065217  97.6841443  66.2340585  85.3345860
  97.6171053  67.7903538  86.1873583 112.1490000  64.0000000  80.9750000
 101.7340000  75.9640000  90.2720000 108.0018435  78.4672258  91.2108018
 106.4726208  78.4763423  91.2108476 105.9079748  77.0543454  91.2099514
 104.3797844  77.0609019  91.2093803 103.8082430  75.6610000  91.2090000
 102.4540000  75.6610000  91.2090000 104.4584269  74.6287992  91.2084242
 101.5470000  76.5650000  88.4140000 101.1759627  76.5646082  89.5474083
 101.1729482  75.9486945  91.2114991 108.3710424  77.9328952  92.0942020
 108.3717372  77.9319623  90.3292715 106.1092267  79.0159011  90.3284328
 106.1081634  79.0159044  92.0933625 106.2741151  76.5104740  92.0889224
 106.2740361  76.5119952  90.3287225 104.0125586  77.5793983  90.3171832
 104.0127875  77.5788719  92.1026810 102.0617631  76.5543881  91.2090000
 110.6800000  66.7990000 104.5160000 112.1297774  73.9002005 105.9421438
 110.6206515  73.8147848 105.8552115 110.0609757  72.9116163 106.9462000
 108.5622477  72.8560210 106.7793451 107.9431405  71.9892373 107.8523042
 106.4368159  72.1211808 107.7777451 105.8190844  71.3200000 106.6290000
 104.2730000  71.3200000 106.6290000 103.6656962  72.7467263 106.6290000
 104.1635752  73.6732788 105.5164628 103.6088467  75.0867891 105.7390727
 104.1163630  76.0502987 104.6710697 103.5644346  77.4614171 104.8918251
 104.0729851  78.4016350 103.7966481 103.5262930  79.8167717 103.9737523
 104.0388686  80.7341607 102.8758111 103.7495855  70.6701111 107.9760708
 104.0684433  71.4880878 109.2204143 103.5263105  70.8484234 110.4948002
 103.9543195  71.7123543 111.6749314 103.4380424  71.1910436 113.0095243
 103.9259725  72.1048104 114.1332741 103.4365096  71.6260682 115.4904484
 103.9243658  72.5370515 116.6043876 103.7181881  70.4493906 105.4626574
 104.0717005  68.9635280 105.3524780 103.6779988  68.0288091 106.5009995
 102.1699550  68.0441187 106.7559279 101.4954239  67.3942166 105.5654070
  99.9870011  67.4649084 105.5740254  99.5068934  66.7693069 104.3025471
  97.9988128  66.7660083 104.2104068 110.2180000  67.0670000 103.5610000
 110.1410455  66.6963397 103.5686543 110.0585611  66.3644972 105.3085043
 112.4249754  74.3016320 106.9178291 112.5651727  72.8982427 105.8524485
 110.3179720  73.4276836 104.8750912 110.1788237  74.8144455 105.9548742
 110.3242239  73.3048512 107.9332884 110.4894698  71.9027144 106.8669043
 108.3053187  72.4707845 105.7925598 108.1488951  73.8740287 106.8503450
 108.2772658  72.3272563 108.8385970 108.2573866  70.9437500 107.7485358
 106.1477068  73.1769578 107.7325596 106.1246052  71.7793389 108.7448530
 106.1393425  70.2769625 106.6783618 106.1333881  71.7224737 105.6612644
 103.9122357  73.2156140 107.5714736 102.5773203  72.6326983 106.5752458
 103.8430002  73.3207926 104.5304638 105.2567742  73.7295951 105.5079587
 103.9129731  75.4465757 106.7301851 102.5125120  75.0572478 105.7266420
 103.8219548  75.6887877 103.6812164 105.2125354  76.0807619 104.6955471
 103.8700479  77.8301915 105.8655016 102.4677292  77.4367877 104.8762742
 103.7765892  78.0148654 102.8153420 105.1690986  78.4262493 103.8183350
 103.8267766  80.2157647 104.9497785 102.4310217  79.8003078 103.9503739
 105.1319208  80.7974951 102.8963196 103.6360697  81.7428999 103.0043585
 103.7358333  80.3698719 101.8883785 104.2040542  69.6789619 108.0571353
 102.6616585  70.5595741 107.8667896 103.6146181  72.4800562 109.1641875
 105.1498946  71.6187973 109.3162741 103.9117371  69.8260534 110.6080741
 102.4314861  70.7840040 110.4475077 103.5915386  72.7373520 111.5254737
 105.0505863  71.7634758 111.7051920 103.7996747  70.1668178 113.1758961
 102.3449449  71.1591222 112.9998868 103.5711846  73.1282743 113.9546315
 105.0214191  72.1408192 114.1301142 103.7907464  70.6051405 115.6781609
 102.3390941  71.5943802 115.5046289 105.0193061  72.5696533 116.6311465
 103.5709240  72.1762630 117.5752081 103.5547896  73.5584462 116.4645654
 104.1310187  70.8802503 104.5463470 102.6329227  70.6012412 105.4459759
 105.1097693  68.8169570 105.0502213 103.5840395  68.6109919 104.4378611
 104.2430450  68.2217473 107.4158266 103.9807210  67.0061249 106.2324306
 101.7955027  69.0674619 106.9009115 101.9388803  67.4986479 107.6774420
 101.8253367  66.3491193 105.5097990 101.8149557  67.8727440 104.6377341
  99.6622828  68.5150482 105.5763644  99.5834417  66.9859961 106.4687258
  99.8781578  65.7376438 104.2853392  99.9237044  67.2701868 103.4197975
  97.5648940  66.2681213 105.0815217  97.6841443  66.2340585 103.3095860
  97.6171053  67.7903538 104.1623583 112.1490000  64.0000000  98.9500000
 101.7340000  75.9640000 108.2470000 108.0018435  78.4672258 109.1858018
 106.4726208  78.4763423 109.1858476 105.9079748  77.0543454 109.1849514
 104.3797844  77.0609019 109.1843803 103.8082430  75.6610000 109.1840000
 102.4540000  75.6610000 109.1840000 104.4584269  74.6287992 109.1834242
 101.5470000  76.5650000 106.3890000 101.1759627  76.5646082 107.5224083
 101.1729482  75.9486945 109.1864991 108.3710424  77.9328952 110.0692020
 108.3717372  77.9319623 108.3042715 106.1092267  79.0159011 108.3034328
 106.1081634  79.0159044 110.0683625 106.2741151  76.5104740 110.0639224
 106.2740361  76.5119952 108.3037225 104.0125586  77.5793983 108.2921832
 104.0127875  77.5788719 110.0776810 102.0617631  76.5543881 109.1840000
 110.6800000  66.7990000 122.4900000 112.1297774  73.9002005 123.9161438
 110.6206515  73.8147848 123.8292115 110.0609757  72.9116163 124.9202000
 108.5622477  72.8560210 124.7533451 107.9431405  71.9892373 125.8263042
 106.4368159  72.1211808 125.7517451 105.8190844  71.3200000 124.6030000
 104.2730000  71.3200000 124.6030000 103.6656962  72.7467263 124.6030000
 104.1635752  73.6732788 123.4904628 103.6088467  75.0867891 123.7130727
 104.1163630  76.0502987 122.6450697 103.5644346  77.4614171 122.8658251
 104.0729851  78.4016350 121.7706481 103.5262930  79.8167717 121.9477523
 104.0388686  80.7341607 120.8498111 103.7495855  70.6701111 125.9500708
 104.0684433  71.4880878 127.1944143 103.5263105  70.8484234 128.4688002
 103.9543195  71.7123543 129.6489314 103.4380424  71.1910436 130.9835243
 103.9259725  72.1048104 132.1072741 103.4365096  71.6260682 133.4644484
 103.9243658  72.5370515 134.5783876 103.7181881  70.4493906 123.4366574
 104.0717005  68.9635280 123.3264780 103.6779988  68.0288091 124.4749995
 102.1699550  68.0441187 124.7299279 101.4954239  67.3942166 123.5394070
  99.9870011  67.4649084 123.5480254  99.5068934  66.7693069 122.2765471
  97.9988128  66.7660083 122.1844068 110.2180000  67.0670000 121.5350000
 110.1410455  66.6963397 121.5426543 110.0585611  66.3644972 123.2825043
 112.4249754  74.3016320 124.8918291 112.5651727  72.8982427 123.8264485
 110.3179720  73.4276836 122.8490912 110.1788237  74.8144455 123.9288742
 110.3242239  73.3048512 125.9072884 110.4894698  71.9027144 124.8409043
 108.3053187  72.4707845 123.7665598 108.1488951  73.8740287 124.8243450
 108.2772658  72.3272563 126.8125970 108.2573866  70.9437500 125.7225358
 106.1477068  73.1769578 125.7065596 106.1246052  71.7793389 126.7188530
 106.1393425  70.2769625 124.6523618 106.1333881  71.7224737 123.6352644
 103.9122357  73.2156140 125.5454736 102.5773203  72.6326983 124.5492458
 103.8430002  73.3207926 122.5044638 105.2567742  73.7295951 123.4819587
 103.9129731  75.4465757 124.7041851 102.5125120  75.0572478 123.7006420
 103.8219548  75.6887877 121.6552164 105.2125354  76.0807619 122.6695471
 103.8700479  77.8301915 123.8395016 102.4677292  77.4367877 122.8502742
 103.7765892  78.0148654 120.7893420 105.1690986  78.4262493 121.7923350
 103.8267766  80.2157647 122.9237785 102.4310217  79.8003078 121.9243739
 105.1319208  80.7974951 120.8703196 103.6360697  81.7428999 120.9783585
 103.7358333  80.3698719 119.8623785 104.2040542  69.6789619 126.0311353
 102.6616585  70.5595741 125.8407896 103.6146181  72.4800562 127.1381875
 105.1498946  71.6187973 127.2902741 103.9117371  69.8260534 128.5820741
 102.4314861  70.7840040 128.4215077 103.5915386  72.7373520 129.4994737
 105.0505863  71.7634758 129.6791920 103.7996747  70.1668178 131.1498961
 102.3449449  71.1591222 130.9738868 103.5711846  73.1282743 131.9286315
 105.0214191  72.1408192 132.1041142 103.7907464  70.6051405 133.6521609
 102.3390941  71.5943802 133.4786289 105.0193061  72.5696533 134.6051465
 103.5709240  72.1762630 135.5492081 103.5547896  73.5584462 134.4385654
 104.1310187  70.8802503 122.5203470 102.6329227  70.6012412 123.4199759
 105.1097693  68.8169570 123.0242213 103.5840395  68.6109919 122.4118611
 104.2430450  68.2217473 125.3898266 103.9807210  67.0061249 124.2064306
 101.7955027  69.0674619 124.8749115 101.9388803  67.4986479 125.6514420
 101.8253367  66.3491193 123.4837990 101.8149557  67.8727440 122.6117341
  99.6622828  68.5150482 123.5503644  99.5834417  66.9859961 124.4427258
  99.8781578  65.7376438 122.2593392  99.9237044  67.2701868 121.3937975
  97.5648940  66.2681213 123.0555217  97.6841443  66.2340585 121.2835860
  97.6171053  67.7903538 122.1363583 112.1490000  64.0000000 116.9240000
 101.7340000  75.9640000 126.2210000 108.0018435  78.4672258 127.1598018
 106.4726208  78.4763423 127.1598476 105.9079748  77.0543454 127.1589514
 104.3797844  77.0609019 127.1583803 103.8082430  75.6610000 127.1580000
 102.4540000  75.6610000 127.1580000 104.4584269  74.6287992 127.1574242
 101.5470000  76.5650000 124.3630000 101.1759627  76.5646082 125.4964083
 101.1729482  75.9486945 127.1604991 108.3710424  77.9328952 128.0432020
 108.3717372  77.9319623 126.2782715 106.1092267  79.0159011 126.2774328
 106.1081634  79.0159044 128.0423625 106.2741151  76.5104740 128.0379224
 106.2740361  76.5119952 126.2777225 104.0125586  77.5793983 126.2661832
 104.0127875  77.5788719 128.0516810 102.0617631  76.5543881 127.1580000
 110.6800000  66.7990000 140.4650000 112.1297774  73.9002005 141.8911438
 110.6206515  73.8147848 141.8042115 110.0609757  72.9116163 142.8952000
 108.5622477  72.8560210 142.7283451 107.9431405  71.9892373 143.8013042
 106.4368159  72.1211808 143.7267451 105.8190844  71.3200000 142.5780000
 104.2730000  71.3200000 142.5780000 103.6656962  72.7467263 142.5780000
 104.1635752  73.6732788 141.4654628 103.6088467  75.0867891 141.6880727
 104.1163630  76.0502987 140.6200697 103.5644346  77.4614171 140.8408251
 104.0729851  78.4016350 139.7456481 103.5262930  79.8167717 139.9227523
 104.0388686  80.7341607 138.8248111 103.7495855  70.6701111 143.9250708
 104.0684433  71.4880878 145.1694143 103.5263105  70.8484234 146.4438002
 103.9543195  71.7123543 147.6239314 103.4380424  71.1910436 148.9585243
 103.9259725  72.1048104 150.0822741 103.4365096  71.6260682 151.4394484
 103.9243658  72.5370515 152.5533876 103.7181881  70.4493906 141.4116574
 104.0717005  68.9635280 141.3014780 103.6779988  68.0288091 142.4499995
 102.1699550  68.0441187 142.7049279 101.4954239  67.3942166 141.5144070
  99.9870011  67.4649084 141.5230254  99.5068934  66.7693069 140.2515471
  97.9988128  66.7660083 140.1594068 110.2180000  67.0670000 139.5100000
 110.1410455  66.6963397 139.5176543 110.0585611  66.3644972 141.2575043
 112.4249754  74.3016320 142.8668291 112.5651727  72.8982427 141.8014485
 110.3179720  73.4276836 140.8240912 110.1788237  74.8144455 141.9038742
 110.3242239  73.3048512 143.8822884 110.4894698  71.9027144 142.8159043
 108.3053187  72.4707845 141.7415598 108.1488951  73.8740287 142.7993450
 108.2772658  72.3272563 144.7875970 108.2573866  70.9437500 143.6975358
 106.1477068  73.1769578 143.6815596 106.1246052  71.7793389 144.6938530
 106.1393425  70.2769625 142.6273618 106.1333881  71.7224737 141.6102644
 103.9122357  73.2156140 143.5204736 102.5773203  72.6326983 142.5242458
 103.8430002  73.3207926 140.4794638 105.2567742  73.7295951 141.4569587
 103.9129731  75.4465757 142.6791851 102.5125120  75.0572478 141.6756420
 103.8219548  75.6887877 139.6302164 105.2125354  76.0807619 140.6445471
 103.8700479  77.8301915 141.8145016 102.4677292  77.4367877 140.8252742
 103.7765892  78.0148654 138.7643420 105.1690986  78.4262493 139.7673350
 103.8267766  80.2157647 140.8987785 102.4310217  79.8003078 139.8993739
 105.1319208  80.7974951 138.8453196 103.6360697  81.7428999 138.9533585
 103.7358333  80.3698719 137.8373785 104.2040542  69.6789619 144.0061353
 102.6616585  70.5595741 143.8157896 103.6146181  72.4800562 145.1131875
 105.1498946  71.6187973 145.2652741 103.9117371  69.8260534 146.5570741
 102.4314861  70.7840040 146.3965077 103.5915386  72.7373520 147.4744737
 105.0505863  71.7634758 147.6541920 103.7996747  70.1668178 149.1248961
 102.3449449  71.1591222 148.9488868 103.5711846  73.1282743 149.9036315
 105.0214191  72.1408192 150.0791142 103.7907464  70.6051405 151.6271609
 102.3390941  71.5943802 151.4536289 105.0193061  72.5696533 152.5801465
 103.5709240  72.1762630 153.5242081 103.5547896  73.5584462 152.4135654
 104.1310187  70.8802503 140.4953470 102.6329227  70.6012412 141.3949759
 105.1097693  68.8169570 140.9992213 103.5840395  68.6109919 140.3868611
 104.2430450  68.2217473 143.3648266 103.9807210  67.0061249 142.1814306
 101.7955027  69.0674619 142.8499115 101.9388803  67.4986479 143.6264420
 101.8253367  66.3491193 141.4587990 101.8149557  67.8727440 140.5867341
  99.6622828  68.5150482 141.5253644  99.5834417  66.9859961 142.4177258
  99.8781578  65.7376438 140.2343392  99.9237044  67.2701868 139.3687975
  97.5648940  66.2681213 141.0305217  97.6841443  66.2340585 139.2585860
  97.6171053  67.7903538 140.1113583 112.1490000  64.0000000 134.8990000
 101.7340000  75.9640000 144.1960000 108.0018435  78.4672258 145.1348018
 106.4726208  78.4763423 145.1348476 105.9079748  77.0543454 145.1339514
 104.3797844  77.0609019 145.1333803 103.8082430  75.6610000 145.1330000
 102.4540000  75.6610000 145.1330000 104.4584269  74.6287992 145.1324242
 101.5470000  76.5650000 142.3380000 101.1759627  76.5646082 143.4714083
 101.1729482  75.9486945 145.1354991 108.3710424  77.9328952 146.0182020
 108.3717372  77.9319623 144.2532715 106.1092267  79.0159011 144.2524328
 106.1081634  79.0159044 146.0173625 106.2741151  76.5104740 146.0129224
 106.2740361  76.5119952 144.2527225 104.0125586  77.5793983 144.2411832
 104.0127875  77.5788719 146.0266810 102.0617631  76.5543881 145.1330000
 110.6800000  66.7990000 158.4400000 112.1297774  73.9002005 159.8661438
 110.6206515  73.8147848 159.7792115 110.0609757  72.9116163 160.8702000
 108.5622477  72.8560210 160.7033451 107.9431405  71.9892373 161.7763042
 106.4368159  72.1211808 161.7017451 105.8190844  71.3200000 160.5530000
 104.2730000  71.3200000 160.5530000 103.6656962  72.7467263 160.5530000
 104.1635752  73.6732788 159.4404628 103.6088467  75.0867891 159.6630727
 104.1163630  76.0502987 158.5950697 103.5644346  77.4614171 158.8158251
 104.0729851  78.4016350 157.7206481 103.5262930  79.8167717 157.8977523
 104.0388686  80.7341607 156.7998111 103.7495855  70.6701111 161.9000708
 104.0684433  71.4880878 163.1444143 103.5263105  70.8484234 164.4188002
 103.9543195  71.7123543 165.5989314 103.4380424  71.1910436 166.9335243
 103.9259725  72.1048104 168.0572741 103.4365096  71.6260682 169.4144484
 103.9243658  72.5370515 170.5283876 103.7181881  70.4493906 159.3866574
 104.0717005  68.9635280 159.2764780 103.6779988  68.0288091 160.4249995
 102.1699550  68.0441187 160.6799279 101.4954239  67.3942166 159.4894070
  99.9870011  67.4649084 159.4980254  99.5068934  66.7693069 158.2265471
  97.9988128  66.7660083 158.1344068 110.2180000  67.0670000 157.4850000
 110.1410455  66.6963397 157.4926543 110.0585611  66.3644972 159.2325043
 112.4249754  74.3016320 160.8418291 112.5651727  72.8982427 159.7764485
 110.3179720  73.4276836 158.7990912 110.1788237  74.8144455 159.8788742
 110.3242239  73.3048512 161.8572884 110.4894698  71.9027144 160.7909043
 108.3053187  72.4707845 159.7165598 108.1488951  73.8740287 160.7743450
 108.2772658  72.3272563 162.7625970 108.2573866  70.9437500 161.6725358
 106.1477068  73.1769578 161.6565596 106.1246052  71.7793389 162.6688530
 106.1393425  70.2769625 160.6023618 106.1333881  71.7224737 159.5852644
 103.9122357  73.2156140 161.4954736 102.5773203  72.6326983 160.4992458
 103.8430002  73.3207926 158.4544638 105.2567742  73.7295951 159.4319587
 103.9129731  75.4465757 160.6541851 102.5125120  75.0572478 159.6506420
 103.8219548  75.6887877 157.6052164 105.2125354  76.0807619 158.6195471
 103.8700479  77.8301915 159.7895016 102.4677292  77.4367877 158.8002742
 103.7765892  78.0148654 156.7393420 105.1690986  78.4262493 157.7423350
 103.8267766  80.2157647 158.8737785 102.4310217  79.8003078 157.8743739
 105.1319208  80.7974951 156.8203196 103.6360697  81.7428999 156.9283585
 103.7358333  80.3698719 155.8123785 104.2040542  69.6789619 161.9811353
 102.6616585  70.5595741 161.7907896 103.6146181  72.4800562 163.0881875
 105.1498946  71.6187973 163.2402741 103.9117371  69.8260534 164.5320741
 102.4314861  70.7840040 164.3715077 103.5915386  72.7373520 165.4494737
 105.0505863  71.7634758 165.6291920 103.7996747  70.1668178 167.0998961
 102.3449449  71.1591222 166.9238868 103.5711846  73.1282743 167.8786315
 105.0214191  72.1408192 168.0541142 103.7907464  70.6051405 169.6021609
 102.3390941  71.5943802 169.4286289 105.0193061  72.5696533 170.5551465
 103.5709240  72.1762630 171.4992081 103.5547896  73.5584462 170.3885654
 104.1310187  70.8802503 158.4703470 102.6329227  70.6012412 159.3699759
 105.1097693  68.8169570 158.9742213 103.5840395  68.6109919 158.3618611
 104.2430450  68.2217473 161.3398266 103.9807210  67.0061249 160.1564306
 101.7955027  69.0674619 160.8249115 101.9388803  67.4986479 161.6014420
 101.8253367  66.3491193 159.4337990 101.8149557  67.8727440 158.5617341
  99.6622828  68.5150482 159.5003644  99.5834417  66.9859961 160.3927258
  99.8781578  65.7376438 158.2093392  99.9237044  67.2701868 157.3437975
  97.5648940  66.2681213 159.0055217  97.6841443  66.2340585 157.2335860
  97.6171053  67.7903538 158.0863583 112.1490000  64.0000000 152.8740000
 101.7340000  75.9640000 162.1710000 108.0018435  78.4672258 163.1098018
 106.4726208  78.4763423 163.1098476 105.9079748  77.0543454 163.1089514
 104.3797844  77.0609019 163.1083803 103.8082430  75.6610000 163.1080000
 102.4540000  75.6610000 163.1080000 104.4584269  74.6287992 163.1074242
 101.5470000  76.5650000 160.3130000 101.1759627  76.5646082 161.4464083
 101.1729482  75.9486945 163.1104991 108.3710424  77.9328952 163.9932020
 108.3717372  77.9319623 162.2282715 106.1092267  79.0159011 162.2274328
 106.1081634  79.0159044 163.9923625 106.2741151  76.5104740 163.9879224
 106.2740361  76.5119952 162.2277225 104.0125586  77.5793983 162.2161832
 104.0127875  77.5788719 164.0016810 102.0617631  76.5543881 163.1080000
 110.6800000  66.7990000 176.4150000 112.1297774  73.9002005 177.8411438
 110.6206515  73.8147848 177.7542115 110.0609757  72.9116163 178.8452000
 108.5622477  72.8560210 178.6783451 107.9431405  71.9892373 179.7513042
 106.4368159  72.1211808 179.6767451 105.8190844  71.3200000 178.5280000
 104.2730000  71.3200000 178.5280000 103.6656962  72.7467263 178.5280000
 104.1635752  73.6732788 177.4154628 103.6088467  75.0867891 177.6380727
 104.1163630  76.0502987 176.5700697 103.5644346  77.4614171 176.7908251
 104.0729851  78.4016350 175.6956481 103.5262930  79.8167717 175.8727523
 104.0388686  80.7341607 174.7748111 103.7495855  70.6701111 179.8750708
 104.0684433  71.4880878 181.1194143 103.5263105  70.8484234 182.3938002
 103.9543195  71.7123543 183.5739314 103.4380424  71.1910436 184.9085243
 103.9259725  72.1048104 186.0322741 103.4365096  71.6260682 187.3894484
 103.9243658  72.5370515 188.5033876 103.7181881  70.4493906 177.3616574
 104.0717005  68.9635280 177.2514780 103.6779988  68.0288091 178.3999995
 102.1699550  68.0441187 178.6549279 101.4954239  67.3942166 177.4644070
  99.9870011  67.4649084 177.4730254  99.5068934  66.7693069 176.2015471
  97.9988128  66.7660083 176.1094068 110.2180000  67.0670000 175.4600000
 110.1410455  66.6963397 175.4676543 110.0585611  66.3644972 177.2075043
 112.4249754  74.3016320 178.8168291 112.5651727  72.8982427 177.7514485
 110.3179720  73.4276836 176.7740912 110.1788237  74.8144455 177.8538742
 110.3242239  73.3048512 179.8322884 110.4894698  71.9027144 178.7659043
 108.3053187  72.4707845 177.6915598 108.1488951  73.8740287 178.7493450
 108.2772658  72.3272563 180.7375970 108.2573866  70.9437500 179.6475358
 106.1477068  73.1769578 179.6315596 106.1246052  71.7793389 180.6438530
 106.1393425  70.2769625 178.5773618 106.1333881  71.7224737 177.5602644
 103.9122357  73.2156140 179.4704736 102.5773203  72.6326983 178.4742458
 103.8430002  73.3207926 176.4294638 105.2567742  73.7295951 177.4069587
 103.9129731  75.4465757 178.6291851 102.5125120  75.0572478 177.6256420
 103.8219548  75.6887877 175.5802164 105.2125354  76.0807619 176.5945471
 103.8700479  77.8301915 177.7645016 102.4677292  77.4367877 176.7752742
 103.7765892  78.0148654 174.7143420 105.1690986  78.4262493 175.7173350
 103.8267766  80.2157647 176.8487785 102.4310217  79.8003078 175.8493739
 105.1319208  80.7974951 174.7953196 103.6360697  81.7428999 174.9033585
 103.7358333  80.3698719 173.7873785 104.2040542  69.6789619 179.9561353
 102.6616585  70.5595741 179.7657896 103.6146181  72.4800562 181.0631875
 105.1498946  71.6187973 181.2152741 103.9117371  69.8260534 182.5070741
 102.4314861  70.7840040 182.3465077 103.5915386  72.7373520 183.4244737
 105.0505863  71.7634758 183.6041920 103.7996747  70.1668178 185.0748961
 102.3449449  71.1591222 184.8988868 103.5711846  73.1282743 185.8536315
 105.0214191  72.1408192 186.0291142 103.7907464  70.6051405 187.5771609
 102.3390941  71.5943802 187.4036289 105.0193061  72.5696533 188.5301465
 103.5709240  72.1762630 189.4742081 103.5547896  73.5584462 188.3635654
 104.1310187  70.8802503 176.4453470 102.6329227  70.6012412 177.3449759
 105.1097693  68.8169570 176.9492213 103.5840395  68.6109919 176.3368611
 104.2430450  68.2217473 179.3148266 103.9807210  67.0061249 178.1314306
 101.7955027  69.0674619 178.7999115 101.9388803  67.4986479 179.5764420
 101.8253367  66.3491193 177.4087990 101.8149557  67.8727440 176.5367341
  99.6622828  68.5150482 177.4753644  99.5834417  66.9859961 178.3677258
  99.8781578  65.7376438 176.1843392  99.9237044  67.2701868 175.3187975
  97.5648940  66.2681213 176.9805217  97.6841443  66.2340585 175.2085860
  97.6171053  67.7903538 176.0613583 112.1490000  64.0000000 170.8490000
 101.7340000  75.9640000 180.1460000 108.0018435  78.4672258 181.0848018
 106.4726208  78.4763423 181.0848476 105.9079748  77.0543454 181.0839514
 104.3797844  77.0609019 181.0833803 103.8082430  75.6610000 181.0830000
 102.4540000  75.6610000 181.0830000 104.4584269  74.6287992 181.0824242
 101.5470000  76.5650000 178.2880000 101.1759627  76.5646082 179.4214083
 101.1729482  75.9486945 181.0854991 108.3710424  77.9328952 181.9682020
 108.3717372  77.9319623 180.2032715 106.1092267  79.0159011 180.2024328
 106.1081634  79.0159044 181.9673625 106.2741151  76.5104740 181.9629224
 106.2740361  76.5119952 180.2027225 104.0125586  77.5793983 180.1911832
 104.0127875  77.5788719 181.9766810 102.0617631  76.5543881 181.0830000
 110.6800000  85.4030000  68.5660000 112.1297774  92.5042005  69.9921438
 110.6206515  92.4187848  69.9052115 110.0609757  91.5156163  70.9962000
 108.5622477  91.4600210  70.8293451 107.9431405  90.5932373  71.9023042
 106.4368159  90.7251808  71.8277451 105.8190844  89.9240000  70.6790000
 104.2730000  89.9240000  70.6790000 103.6656962  91.3507263  70.6790000
 104.1635752  92.2772788  69.5664628 103.6088467  93.6907891  69.7890727
 104.1163630  94.6542987  68.7210697 103.5644346  96.0654171  68.9418251
 104.0729851  97.0056350  67.8466481 103.5262930  98.4207717  68.0237523
 104.0388686  99.3381607  66.9258111 103.7495855  89.2741111  72.0260708
 104.0684433  90.0920878  73.2704143 103.5263105  89.4524234  74.5448002
 103.9543195  90.3163543  75.7249314 103.4380424  89.7950436  77.0595243
 103.9259725  90.7088104  78.1832741 103.4365096  90.2300682  79.5404484
 103.9243658  91.1410515  80.6543876 103.7181881  89.0533906  69.5126574
 104.0717005  87.5675280  69.4024780 103.6779988  86.6328091  70.5509995
 102.1699550  86.6481187  70.8059279 101.4954239  85.9982166  69.6154070
  99.9870011  86.0689084  69.6240254  99.5068934  85.3733069  68.3525471
  97.9988128  85.3700083  68.2604068 110.2180000  85.6710000  67.6110000
 110.1410455  85.3003397  67.6186543 110.0585611  84.9684972  69.3585043
 112.4249754  92.9056320  70.9678291 112.5651727  91.5022427  69.9024485
 110.3179720  92.0316836  68.9250912 110.1788237  93.4184455  70.0048742
 110.3242239  91.9088512  71.9832884 110.4894698  90.5067144  70.9169043
 108.3053187  91.0747845  69.8425598 108.1488951  92.4780287  70.9003450
 108.2772658  90.9312563  72.8885970 108.2573866  89.5477500  71.7985358
 106.1477068  91.7809578  71.7825596 106.1246052  90.3833389  72.7948530
 106.1393425  88.8809625  70.7283618 106.1333881  90.3264737  69.7112644
 103.9122357  91.8196140  71.6214736 102.5773203  91.2366983  70.6252458
 103.8430002  91.9247926  68.5804638 105.2567742  92.3335951  69.5579587
 103.9129731  94.0505757  70.7801851 102.5125120  93.6612478  69.7766420
 103.8219548  94.2927877  67.7312164 105.2125354  94.6847619  68.7455471
 103.8700479  96.4341915  69.9155016 102.4677292  96.0407877  68.9262742
 103.7765892  96.6188654  66.8653420 105.1690986  97.0302493  67.8683350
 103.8267766  98.8197647  68.9997785 102.4310217  98.4043078  68.0003739
 105.1319208  99.4014951  66.9463196 103.6360697 100.3468999  67.0543585
 103.7358333  98.9738719  65.9383785 104.2040542  88.2829619  72.1071353
 102.6616585  89.1635741  71.9167896 103.6146181  91.0840562  73.2141875
 105.1498946  90.2227973  73.3662741 103.9117371  88.4300534  74.6580741
 102.4314861  89.3880040  74.4975077 103.5915386  91.3413520  75.5754737
 105.0505863  90.3674758  75.7551920 103.7996747  88.7708178  77.2258961
 102.3449449  89.7631222  77.0498868 103.5711846  91.7322743  78.0046315
 105.0214191  90.7448192  78.1801142 103.7907464  89.2091405  79.7281609
 102.3390941  90.1983802  79.5546289 105.0193061  91.1736533  80.6811465
 103.5709240  90.7802630  81.6252081 103.5547896  92.1624462  80.5145654
 104.1310187  89.4842503  68.5963470 102.6329227  89.2052412  69.4959759
 105.1097693  87.4209570  69.1002213 103.5840395  87.2149919  68.4878611
 104.2430450  86.8257473  71.4658266 103.9807210  85.6101249  70.2824306
 101.7955027  87.6714619  70.9509115 101.9388803  86.1026479  71.7274420
 101.8253367  84.9531193  69.5597990 101.8149557  86.4767440  68.6877341
  99.6622828  87.1190482  69.6263644  99.5834417  85.5899961  70.5187258
  99.8781578  84.3416438  68.3353392  99.9237044  85.8741868  67.4697975
  97.5648940  84.8721213  69.1315217  97.6841443  84.8380585  67.3595860
  97.6171053  86.3943538  68.2123583 112.1490000  82.6040000  63.0000000
 101.7340000  94.5680000  72.2970000 108.0018435  97.0712258  73.2358018
 106.4726208  97.0803423  73.2358476 105.9079748  95.6583454  73.2349514
 104.3797844  95.6649019  73.2343803 103.8082430  94.2650000  73.2340000
 102.4540000  94.2650000  73.2340000 104.4584269  93.2327992  73.2334242
 101.5470000  95.1690000  70.4390000 101.1759627  95.1686082  71.5724083
 101.1729482  94.5526945  73.2364991 108.3710424  96.5368952  74.1192020
 108.3717372  96.5359623  72.3542715 106.1092267  97.6199011  72.3534328
 106.1081634  97.6199044  74.1183625 106.2741151  95.1144740  74.1139224
 106.2740361  95.1159952  72.3537225 104.0125586  96.1833983  72.3421832
 104.0127875  96.1828719  74.1276810 102.0617631  95.1583881  73.2340000
 110.6800000  85.4030000  86.5410000 112.1297774  92.5042005  87.9671438
 110.6206515  92.4187848  87.8802115 110.0609757  91.5156163  88.9712000
 108.5622477  91.4600210  88.8043451 107.9431405  90.5932373  89.8773042
 106.4368159  90.7251808  89.8027451 105.8190844  89.9240000  88.6540000
 104.2730000  89.9240000  88.6540000 103.6656962  91.3507263  88.6540000
 104.1635752  92.2772788  87.5414628 103.6088467  93.6907891  87.7640727
 104.1163630  94.6542987  86.6960697 103.5644346  96.0654171  86.9168251
 104.0729851  97.0056350  85.8216481 103.5262930  98.4207717  85.9987523
 104.0388686  99.3381607  84.9008111 103.7495855  89.2741111  90.0010708
 104.0684433  90.0920878  91.2454143 103.5263105  89.4524234  92.5198002
 103.9543195  90.3163543  93.6999314 103.4380424  89.7950436  95.0345243
 103.9259725  90.7088104  96.1582741 103.4365096  90.2300682  97.5154484
 103.9243658  91.1410515  98.6293876 103.7181881  89.0533906  87.4876574
 104.0717005  87.5675280  87.3774780 103.6779988  86.6328091  88.5259995
 102.1699550  86.6481187  88.7809279 101.4954239  85.9982166  87.5904070
  99.9870011  86.0689084  87.5990254  99.5068934  85.3733069  86.3275471
  97.9988128  85.3700083  86.2354068 110.2180000  85.6710000  85.5860000
 110.1410455  85.3003397  85.5936543 110.0585611  84.9684972  87.3335043
 112.4249754  92.9056320  88.9428291 112.5651727  91.5022427  87.8774485
 110.3179720  92.0316836  86.9000912 110.1788237  93.4184455  87.9798742
 110.3242239  91.9088512  89.9582884 110.4894698  90.5067144  88.8919043
 108.3053187  91.0747845  87.8175598 108.1488951  92.4780287  88.8753450
 108.2772658  90.9312563  90.8635970 108.2573866  89.5477500  89.7735358
 106.1477068  91.7809578  89.7575596 106.1246052  90.3833389  90.7698530
 106.1393425  88.8809625  88.7033618 106.1333881  90.3264737  87.6862644
 103.9122357  91.8196140  89.5964736 102.5773203  91.2366983  88.6002458
 103.8430002  91.9247926  86.5554638 105.2567742  92.3335951  87.5329587
 103.9129731  94.0505757  88.7551851 102.5125120  93.6612478  87.7516420
 103.8219548  94.2927877  85.7062164 105.2125354  94.6847619  86.7205471
 103.8700479  96.4341915  87.8905016 102.4677292  96.0407877  86.9012742
 103.7765892  96.6188654  84.8403420 105.1690986  97.0302493  85.8433350
 103.8267766  98.8197647  86.9747785 102.4310217  98.4043078  85.9753739
 105.1319208  99.4014951  84.9213196 103.6360697 100.3468999  85.0293585
 103.7358333  98.9738719  83.9133785 104.2040542  88.2829619  90.0821353
 102.6616585  89.1635741  89.8917896 103.6146181  91.0840562  91.1891875
 105.1498946  90.2227973  91.3412741 103.9117371  88.4300534  92.6330741
 102.4314861  89.3880040  92.4725077 103.5915386  91.3413520  93.5504737
 105.0505863  90.3674758  93.7301920 103.7996747  88.7708178  95.2008961
 102.3449449  89.7631222  95.0248868 103.5711846  91.7322743  95.9796315
 105.0214191  90.7448192  96.1551142 103.7907464  89.2091405  97.7031609
 102.3390941  90.1983802  97.5296289 105.0193061  91.1736533  98.6561465
 103.5709240  90.7802630  99.6002081 103.5547896  92.1624462  98.4895654
 104.1310187  89.4842503  86.5713470 102.6329227  89.2052412  87.4709759
 105.1097693  87.4209570  87.0752213 103.5840395  87.2149919  86.4628611
 104.2430450  86.8257473  89.4408266 103.9807210  85.6101249  88.2574306
 101.7955027  87.6714619  88.9259115 101.9388803  86.1026479  89.7024420
 101.8253367  84.9531193  87.5347990 101.8149557  86.4767440  86.6627341
  99.6622828  87.1190482  87.6013644  99.5834417  85.5899961  88.4937258
  99.8781578  84.3416438  86.3103392  99.9237044  85.8741868  85.4447975
  97.5648940  84.8721213  87.1065217  97.6841443  84.8380585  85.3345860
  97.6171053  86.3943538  86.1873583 112.1490000  82.6040000  80.9750000
 101.7340000  94.5680000  90.2720000 108.0018435  97.0712258  91.2108018
 106.4726208  97.0803423  91.2108476 105.9079748  95.6583454  91.2099514
 104.3797844  95.6649019  91.2093803 103.8082430  94.2650000  91.2090000
 102.4540000  94.2650000  91.2090000 104.4584269  93.2327992  91.2084242
 101.5470000  95.1690000  88.4140000 101.1759627  95.1686082  89.5474083
 101.1729482  94.5526945  91.2114991 108.3710424  96.5368952  92.0942020
 108.3717372  96.5359623  90.3292715 106.1092267  97.6199011  90.3284328
 106.1081634  97.6199044  92.0933625 106.2741151  95.1144740  92.0889224
 106.2740361  95.1159952  90.3287225 104.0125586  96.1833983  90.3171832
 104.0127875  96.1828719  92.1026810 102.0617631  95.1583881  91.2090000
 110.6800000  85.4030000 104.5160000 112.1297774  92.5042005 105.9421438
 110.6206515  92.4187848 105.8552115 110.0609757  91.5156163 106.9462000
 108.5622477  91.4600210 106.7793451 107.9431405  90.5932373 107.8523042
 106.4368159  90.7251808 107.7777451 105.8190844  89.9240000 106.6290000
 104.2730000  89.9240000 106.6290000 103.6656962  91.3507263 106.6290000
 104.1635752  92.2772788 105.5164628 103.6088467  93.6907891 105.7390727
 104.1163630  94.6542987 104.6710697 103.5644346  96.0654171 104.8918251
 104.0729851  97.0056350 103.7966481 103.5262930  98.4207717 103.9737523
 104.0388686  99.3381607 102.8758111 103.7495855  89.2741111 107.9760708
 104.0684433  90.0920878 109.2204143 103.5263105  89.4524234 110.4948002
 103.9543195  90.3163543 111.6749314 103.4380424  89.7950436 113.0095243
 103.9259725  90.7088104 114.1332741 103.4365096  90.2300682 115.4904484
 103.9243658  91.1410515 116.6043876 103.7181881  89.0533906 105.4626574
 104.0717005  87.5675280 105.3524780 103.6779988  86.6328091 106.5009995
 102.1699550  86.6481187 106.7559279 101.4954239  85.9982166 105.5654070
  99.9870011  86.0689084 105.5740254  99.5068934  85.3733069 104.3025471
  97.9988128  85.3700083 104.2104068 110.2180000  85.6710000 103.5610000
 110.1410455  85.3003397 103.5686543 110.0585611  84.9684972 105.3085043
 112.4249754  92.9056320 106.9178291 112.5651727  91.5022427 105.8524485
 110.3179720  92.0316836 104.8750912 110.1788237  93.4184455 105.9548742
 110.3242239  91.9088512 107.9332884 110.4894698  90.5067144 106.8669043
 108.3053187  91.0747845 105.7925598 108.1488951  92.4780287 106.8503450
 108.2772658  90.9312563 108.8385970 108.2573866  89.5477500 107.7485358
 106.1477068  91.7809578 107.7325596 106.1246052  90.3833389 108.7448530
 106.1393425  88.8809625 106.6783618 106.1333881  90.3264737 105.6612644
 103.9122357  91.8196140 107.5714736 102.5773203  91.2366983 106.5752458
 103.8430002  91.9247926 104.5304638 105.2567742  92.3335951 105.5079587
 103.9129731  94.0505757 106.7301851 102.5125120  93.6612478 105.7266420
 103.8219548  94.2927877 103.6812164 105.2125354  94.6847619 104.6955471
 103.8700479  96.4341915 105.8655016 102.4677292  96.0407877 104.8762742
 103.7765892  96.6188654 102.8153420 105.1690986  97.0302493 103.8183350
 103.8267766  98.8197647 104.9497785 102.4310217  98.4043078 103.9503739
 105.1319208  99.4014951 102.8963196 103.6360697 100.3468999 103.0043585
 103.7358333  98.9738719 101.8883785 104.2040542  88.2829619 108.0571353
 102.6616585  89.1635741 107.8667896 103.6146181  91.0840562 109.1641875
 105.1498946  90.2227973 109.3162741 103.9117371  88.4300534 110.6080741
 102.4314861  89.3880040 110.4475077 103.5915386  91.3413520 111.5254737
 105.0505863  90.3674758 111.7051920 103.7996747  88.7708178 113.1758961
 102.3449449  89.7631222 112.9998868 103.5711846  91.7322743 113.9546315
 105.0214191  90.7448192 114.1301142 103.7907464  89.2091405 115.6781609
 102.3390941  90.1983802 115.5046289 105.0193061  91.1736533 116.6311465
 103.5709240  90.7802630 117.5752081 103.5547896  92.1624462 116.4645654
 104.1310187  89.4842503 104.5463470 102.6329227  89.2052412 105.4459759
 105.1097693  87.4209570 105.0502213 103.5840395  87.2149919 104.4378611
 104.2430450  86.8257473 107.4158266 103.9807210  85.6101249 106.2324306
 101.7955027  87.6714619 106.9009115 101.9388803  86.1026479 107.6774420
 101.8253367  84.9531193 105.5097990 101.8149557  86.4767440 104.6377341
  99.6622828  87.1190482 105.5763644  99.5834417  85.5899961 106.4687258
  99.8781578  84.3416438 104.2853392  99.9237044  85.8741868 103.4197975
  97.5648940  84.8721213 105.0815217  97.6841443  84.8380585 103.3095860
  97.6171053  86.3943538 104.1623583 112.1490000  82.6040000  98.9500000
 101.7340000  94.5680000 108.2470000 108.0018435  97.0712258 109.1858018
 106.4726208  97.0803423 109.1858476 105.9079748  95.6583454 109.1849514
 104.3797844  95.6649019 109.1843803 103.8082430  94.2650000 109.1840000
 102.4540000  94.2650000 109.1840000 104.4584269  93.2327992 109.1834242
 101.5470000  95.1690000 106.3890000 101.1759627  95.1686082 107.5224083
 101.1729482  94.5526945 109.1864991 108.3710424  96.5368952 110.0692020
 108.3717372  96.5359623 108.3042715 106.1092267  97.6199011 108.3034328
 106.1081634  97.6199044 110.0683625 106.2741151  95.1144740 110.0639224
 106.2740361  95.1159952 108.3037225 104.0125586  96.1833983 108.2921832
 104.0127875  96.1828719 110.0776810 102.0617631  95.1583881 109.1840000
 110.6800000  85.4030000 122.4900000 112.1297774  92.5042005 123.9161438
 110.6206515  92.4187848 123.8292115 110.0609757  91.5156163 124.9202000
 108.5622477  91.4600210 124.7533451 107.9431405  90.5932373 125.8263042
 106.4368159  90.7251808 125.7517451 105.8190844  89.9240000 124.6030000
 104.2730000  89.9240000 124.6030000 103.6656962  91.3507263 124.6030000
 104.1635752  92.2772788 123.4904628 103.6088467  93.6907891 123.7130727
 104.1163630  94.6542987 122.6450697 103.5644346  96.0654171 122.8658251
 104.0729851  97.0056350 121.7706481 103.5262930  98.4207717 121.9477523
 104.0388686  99.3381607 120.8498111 103.7495855  89.2741111 125.9500708
 104.0684433  90.0920878 127.1944143 103.5263105  89.4524234 128.4688002
 103.9543195  90.3163543 129.6489314 103.4380424  89.7950436 130.9835243
 103.9259725  90.7088104 132.1072741 103.4365096  90.2300682 133.4644484
 103.9243658  91.1410515 134.5783876 103.7181881  89.0533906 123.4366574
 104.0717005  87.5675280 123.3264780 103.6779988  86.6328091 124.4749995
 102.1699550  86.6481187 124.7299279 101.4954239  85.9982166 123.5394070
  99.9870011  86.0689084 123.5480254  99.5068934  85.3733069 122.2765471
  97.9988128  85.3700083 122.1844068 110.2180000  85.6710000 121.5350000
 110.1410455  85.3003397 121.5426543 110.0585611  84.9684972 123.2825043
 112.4249754  92.9056320 124.8918291 112.5651727  91.5022427 123.8264485
 110.3179720  92.0316836 122.8490912 110.1788237  93.4184455 123.9288742
 110.3242239  91.9088512 125.9072884 110.4894698  90.5067144 124.8409043
 108.3053187  91.0747845 123.7665598 108.1488951  92.4780287 124.8243450
 108.2772658  90.9312563 126.8125970 108.2573866  89.5477500 125.7225358
 106.1477068  91.7809578 125.7065596 106.1246052  90.3833389 126.7188530
 106.1393425  88.8809625 124.6523618 106.1333881  90.3264737 123.6352644
 103.9122357  91.8196140 125.5454736 102.5773203  91.2366983 124.5492458
 103.8430002  91.9247926 122.5044638 105.2567742  92.3335951 123.4819587
 103.9129731  94.0505757 124.7041851 102.5125120  93.6612478 123.7006420
 103.8219548  94.2927877 121.6552164 105.2125354  94.6847619 122.6695471
 103.8700479  96.4341915 123.8395016 102.4677292  96.0407877 122.8502742
 103.7765892  96.6188654 120.7893420 105.1690986  97.0302493 121.7923350
 103.8267766  98.8197647 122.9237785 102.4310217  98.4043078 121.9243739
 105.1319208  99.4014951 120.8703196 103.6360697 100.3468999 120.9783585
 103.7358333  98.9738719 119.8623785 104.2040542  88.2829619 126.0311353
 102.6616585  89.1635741 125.8407896 103.6146181  91.0840562 127.1381875
 105.1498946  90.2227973 127.2902741 103.9117371  88.4300534 128.5820741
 102.4314861  89.3880040 128.4215077 103.5915386  91.3413520 129.4994737
 105.0505863  90.3674758 129.6791920 103.7996747  88.7708178 131.1498961
 102.3449449  89.7631222 130.9738868 103.5711846  91.7322743 131.9286315
 105.0214191  90.7448192 132.1041142 103.7907464  89.2091405 133.6521609
 102.3390941  90.1983802 133.4786289 105.0193061  91.1736533 134.6051465
 103.5709240  90.7802630 135.5492081 103.5547896  92.1624462 134.4385654
 104.1310187  89.4842503 122.5203470 102.6329227  89.2052412 123.4199759
 105.1097693  87.4209570 123.0242213 103.5840395  87.2149919 122.4118611
 104.2430450  86.8257473 125.3898266 103.9807210  85.6101249 124.2064306
 101.7955027  87.6714619 124.8749115 101.9388803  86.1026479 125.6514420
 101.8253367  84.9531193 123.4837990 101.8149557  86.4767440 122.6117341
  99.6622828  87.1190482 123.5503644  99.5834417  85.5899961 124.4427258
  99.8781578  84.3416438 122.2593392  99.9237044  85.8741868 121.3937975
  97.5648940  84.8721213 123.0555217  97.6841443  84.8380585 121.2835860
  97.6171053  86.3943538 122.1363583 112.1490000  82.6040000 116.9240000
 101.7340000  94.5680000 126.2210000 108.0018435  97.0712258 127.1598018
 106.4726208  97.0803423 127.1598476 105.9079748  95.6583454 127.1589514
 104.3797844  95.6649019 127.1583803 103.8082430  94.2650000 127.1580000
 102.4540000  94.2650000 127.1580000 104.4584269  93.2327992 127.1574242
 101.5470000  95.1690000 124.3630000 101.1759627  95.1686082 125.4964083
 101.1729482  94.5526945 127.1604991 108.3710424  96.5368952 128.0432020
 108.3717372  96.5359623 126.2782715 106.1092267  97.6199011 126.2774328
 106.1081634  97.6199044 128.0423625 106.2741151  95.1144740 128.0379224
 106.2740361  95.1159952 126.2777225 104.0125586  96.1833983 126.2661832
 104.0127875  96.1828719 128.0516810 102.0617631  95.1583881 127.1580000
 110.6800000  85.4030000 140.4650000 112.1297774  92.5042005 141.8911438
 110.6206515  92.4187848 141.8042115 110.0609757  91.5156163 142.8952000
 108.5622477  91.4600210 142.7283451 107.9431405  90.5932373 143.8013042
 106.4368159  90.7251808 143.7267451 105.8190844  89.9240000 142.5780000
 104.2730000  89.9240000 142.5780000 103.6656962  91.3507263 142.5780000
 104.1635752  92.2772788 141.4654628 103.6088467  93.6907891 141.6880727
 104.1163630  94.6542987 140.6200697 103.5644346  96.0654171 140.8408251
 104.0729851  97.0056350 139.7456481 103.5262930  98.4207717 139.9227523
 104.0388686  99.3381607 138.8248111 103.7495855  89.2741111 143.9250708
 104.0684433  90.0920878 145.1694143 103.5263105  89.4524234 146.4438002
 103.9543195  90.3163543 147.6239314 103.4380424  89.7950436 148.9585243
 103.9259725  90.7088104 150.0822741 103.4365096  90.2300682 151.4394484
 103.9243658  91.1410515 152.5533876 103.7181881  89.0533906 141.4116574
 104.0717005  87.5675280 141.3014780 103.6779988  86.6328091 142.4499995
 102.1699550  86.6481187 142.7049279 101.4954239  85.9982166 141.5144070
  99.9870011  86.0689084 141.5230254  99.5068934  85.3733069 140.2515471
  97.9988128  85.3700083 140.1594068 110.2180000  85.6710000 139.5100000
 110.1410455  85.3003397 139.5176543 110.0585611  84.9684972 141.2575043
 112.4249754  92.9056320 142.8668291 112.5651727  91.5022427 141.8014485
 110.3179720  92.0316836 140.8240912 110.1788237  93.4184455 141.9038742
 110.3242239  91.9088512 143.8822884 110.4894698  90.5067144 142.8159043
 108.3053187  91.0747845 141.7415598 108.1488951  92.4780287 142.7993450
 108.2772658  90.9312563 144.7875970 108.2573866  89.5477500 143.6975358
 106.1477068  91.7809578 143.6815596 106.1246052  90.3833389 144.6938530
 106.1393425  88.8809625 142.6273618 106.1333881  90.3264737 141.6102644
 103.9122357  91.8196140 143.5204736 102.5773203  91.2366983 142.5242458
 103.8430002  91.9247926 140.4794638 105.2567742  92.3335951 141.4569587
 103.9129731  94.0505757 142.6791851 102.5125120  93.6612478 141.6756420
 103.8219548  94.2927877 139.6302164 105.2125354  94.6847619 140.6445471
 103.8700479  96.4341915 141.8145016 102.4677292  96.0407877 140.8252742
 103.7765892  96.6188654 138.7643420 105.1690986  97.0302493 139.7673350
 103.8267766  98.8197647 140.8987785 102.4310217  98.4043078 139.8993739
 105.1319208  99.4014951 138.8453196 103.6360697 100.3468999 138.9533585
 103.7358333  98.9738719 137.8373785 104.2040542  88.2829619 144.0061353
 102.6616585  89.1635741 143.8157896 103.6146181  91.0840562 145.1131875
 105.1498946  90.2227973 145.2652741 103.9117371  88.4300534 146.5570741
 102.4314861  89.3880040 146.3965077 103.5915386  91.3413520 147.4744737
 105.0505863  90.3674758 147.6541920 103.7996747  88.7708178 149.1248961
 102.3449449  89.7631222 148.9488868 103.5711846  91.7322743 149.9036315
 105.0214191  90.7448192 150.0791142 103.7907464  89.2091405 151.6271609
 102.3390941  90.1983802 151.4536289 105.0193061  91.1736533 152.5801465
 103.5709240  90.7802630 153.5242081 103.5547896  92.1624462 152.4135654
 104.1310187  89.4842503 140.4953470 102.6329227  89.2052412 141.3949759
 105.1097693  87.4209570 140.9992213 103.5840395  87.2149919 140.3868611
 104.2430450  86.8257473 143.3648266 103.9807210  85.6101249 142.1814306
 101.7955027  87.6714619 142.8499115 101.9388803  86.1026479 143.6264420
 101.8253367  84.9531193 141.4587990 101.8149557  86.4767440 140.5867341
  99.6622828  87.1190482 141.5253644  99.5834417  85.5899961 142.4177258
  99.8781578  84.3416438 140.2343392  99.9237044  85.8741868 139.3687975
  97.5648940  84.8721213 141.0305217  97.6841443  84.8380585 139.2585860
  97.6171053  86.3943538 140.1113583 112.1490000  82.6040000 134.8990000
 101.7340000  94.5680000 144.1960000 108.0018435  97.0712258 145.1348018
 106.4726208  97.0803423 145.1348476 105.9079748  95.6583454 145.1339514
 104.3797844  95.6649019 145.1333803 103.8082430  94.2650000 145.1330000
 102.4540000  94.2650000 145.1330000 104.4584269  93.2327992 145.1324242
 101.5470000  95.1690000 142.3380000 101.1759627  95.1686082 143.4714083
 101.1729482  94.5526945 145.1354991 108.3710424  96.5368952 146.0182020
 108.3717372  96.5359623 144.2532715 106.1092267  97.6199011 144.2524328
 106.1081634  97.6199044 146.0173625 106.2741151  95.1144740 146.0129224
 106.2740361  95.1159952 144.2527225 104.0125586  96.1833983 144.2411832
 104.0127875  96.1828719 146.0266810 102.0617631  95.1583881 145.1330000
 110.6800000  85.4030000 158.4400000 112.1297774  92.5042005 159.8661438
 110.6206515  92.4187848 159.7792115 110.0609757  91.5156163 160.8702000
 108.5622477  91.4600210 160.7033451 107.9431405  90.5932373 161.7763042
 106.4368159  90.7251808 161.7017451 105.8190844  89.9240000 160.5530000
 104.2730000  89.9240000 160.5530000 103.6656962  91.3507263 160.5530000
 104.1635752  92.2772788 159.4404628 103.6088467  93.6907891 159.6630727
 104.1163630  94.6542987 158.5950697 103.5644346  96.0654171 158.8158251
 104.0729851  97.0056350 157.7206481 103.5262930  98.4207717 157.8977523
 104.0388686  99.3381607 156.7998111 103.7495855  89.2741111 161.9000708
 104.0684433  90.0920878 163.1444143 103.5263105  89.4524234 164.4188002
 103.9543195  90.3163543 165.5989314 103.4380424  89.7950436 166.9335243
 103.9259725  90.7088104 168.0572741 103.4365096  90.2300682 169.4144484
 103.9243658  91.1410515 170.5283876 103.7181881  89.0533906 159.3866574
 104.0717005  87.5675280 159.2764780 103.6779988  86.6328091 160.4249995
 102.1699550  86.6481187 160.6799279 101.4954239  85.9982166 159.4894070
  99.9870011  86.0689084 159.4980254  99.5068934  85.3733069 158.2265471
  97.9988128  85.3700083 158.1344068 110.2180000  85.6710000 157.4850000
 110.1410455  85.3003397 157.4926543 110.0585611  84.9684972 159.2325043
 112.4249754  92.9056320 160.8418291 112.5651727  91.5022427 159.7764485
 110.3179720  92.0316836 158.7990912 110.1788237  93.4184455 159.8788742
 110.3242239  91.9088512 161.8572884 110.4894698  90.5067144 160.7909043
 108.3053187  91.0747845 159.7165598 108.1488951  92.4780287 160.7743450
 108.2772658  90.9312563 162.7625970 108.2573866  89.5477500 161.6725358
 106.1477068  91.7809578 161.6565596 106.1246052  90.3833389 162.6688530
 106.1393425  88.8809625 160.6023618 106.1333881  90.3264737 159.5852644
 103.9122357  91.8196140 161.4954736 102.5773203  91.2366983 160.4992458
 103.8430002  91.9247926 158.4544638 105.2567742  92.3335951 159.4319587
 103.9129731  94.0505757 160.6541851 102.5125120  93.6612478 159.6506420
 103.8219548  94.2927877 157.6052164 105.2125354  94.6847619 158.6195471
 103.8700479  96.4341915 159.7895016 102.4677292  96.0407877 158.8002742
 103.7765892  96.6188654 156.7393420 105.1690986  97.0302493 157.7423350
 103.8267766  98.8197647 158.8737785 102.4310217  98.4043078 157.8743739
 105.1319208  99.4014951 156.8203196 103.6360697 100.3468999 156.9283585
 103.7358333  98.9738719 155.8123785 104.2040542  88.2829619 161.9811353
 102.6616585  89.1635741 161.7907896 103.6146181  91.0840562 163.0881875
 105.1498946  90.2227973 163.2402741 103.9117371  88.4300534 164.5320741
 102.4314861  89.3880040 164.3715077 103.5915386  91.3413520 165.4494737
 105.0505863  90.3674758 165.6291920 103.7996747  88.7708178 167.0998961
 102.3449449  89.7631222 166.9238868 103.5711846  91.7322743 167.8786315
 105.0214191  90.7448192 168.0541142 103.7907464  89.2091405 169.6021609
 102.3390941  90.1983802 169.4286289 105.0193061  91.1736533 170.5551465
 103.5709240  90.7802630 171.4992081 103.5547896  92.1624462 170.3885654
 104.1310187  89.4842503 158.4703470 102.6329227  89.2052412 159.3699759
 105.1097693  87.4209570 158.9742213 103.5840395  87.2149919 158.3618611
 104.2430450  86.8257473 161.3398266 103.9807210  85.6101249 160.1564306
 101.7955027  87.6714619 160.8249115 101.9388803  86.1026479 161.6014420
 101.8253367  84.9531193 159.4337990 101.8149557  86.4767440 158.5617341
  99.6622828  87.1190482 159.5003644  99.5834417  85.5899961 160.3927258
  99.8781578  84.3416438 158.2093392  99.9237044  85.8741868 157.3437975
  97.5648940  84.8721213 159.0055217  97.6841443  84.8380585 157.2335860
  97.6171053  86.3943538 158.0863583 112.1490000  82.6040000 152.8740000
 101.7340000  94.5680000 162.1710000 108.0018435  97.0712258 163.1098018
 106.4726208  97.0803423 163.1098476 105.9079748  95.6583454 163.1089514
 104.3797844  95.6649019 163.1083803 103.8082430  94.2650000 163.1080000
 102.4540000  94.2650000 163.1080000 104.4584269  93.2327992 163.1074242
 101.5470000  95.1690000 160.3130000 101.1759627  95.1686082 161.4464083
 101.1729482  94.5526945 163.1104991 108.3710424  96.5368952 163.9932020
 108.3717372  96.5359623 162.2282715 106.1092267  97.6199011 162.2274328
 106.1081634  97.6199044 163.9923625 106.2741151  95.1144740 163.9879224
 106.2740361  95.1159952 162.2277225 104.0125586  96.1833983 162.2161832
 104.0127875  96.1828719 164.0016810 102.0617631  95.1583881 163.1080000
 110.6800000  85.4030000 176.4150000 112.1297774  92.5042005 177.8411438
 110.6206515  92.4187848 177.7542115 110.0609757  91.5156163 178.8452000
 108.5622477  91.4600210 178.6783451 107.9431405  90.5932373 179.7513042
 106.4368159  90.7251808 179.6767451 105.8190844  89.9240000 178.5280000
 104.2730000  89.9240000 178.5280000 103.6656962  91.3507263 178.5280000
 104.1635752  92.2772788 177.4154628 103.6088467  93.6907891 177.6380727
 104.1163630  94.6542987 176.5700697 103.5644346  96.0654171 176.7908251
 104.0729851  97.0056350 175.6956481 103.5262930  98.4207717 175.8727523
 104.0388686  99.3381607 174.7748111 103.7495855  89.2741111 179.8750708
 104.0684433  90.0920878 181.1194143 103.5263105  89.4524234 182.3938002
 103.9543195  90.3163543 183.5739314 103.4380424  89.7950436 184.9085243
 103.9259725  90.7088104 186.0322741 103.4365096  90.2300682 187.3894484
 103.9243658  91.1410515 188.5033876 103.7181881  89.0533906 177.3616574
 104.0717005  87.5675280 177.2514780 103.6779988  86.6328091 178.3999995
 102.1699550  86.6481187 178.6549279 101.4954239  85.9982166 177.4644070
  99.9870011  86.0689084 177.4730254  99.5068934  85.3733069 176.2015471
  97.9988128  85.3700083 176.1094068 110.2180000  85.6710000 175.4600000
 110.1410455  85.3003397 175.4676543 110.0585611  84.9684972 177.2075043
 112.4249754  92.9056320 178.8168291 112.5651727  91.5022427 177.7514485
 110.3179720  92.0316836 176.7740912 110.1788237  93.4184455 177.8538742
 110.3242239  91.9088512 179.8322884 110.4894698  90.5067144 178.7659043
 108.3053187  91.0747845 177.6915598 108.1488951  92.4780287 178.7493450
 108.2772658  90.9312563 180.7375970 108.2573866  89.5477500 179.6475358
 106.1477068  91.7809578 179.6315596 106.1246052  90.3833389 180.6438530
 106.1393425  88.8809625 178.5773618 106.1333881  90.3264737 177.5602644
 103.9122357  91.8196140 179.4704736 102.5773203  91.2366983 178.4742458
 103.8430002  91.9247926 176.4294638 105.2567742  92.3335951 177.4069587
 103.9129731  94.0505757 178.6291851 102.5125120  93.6612478 177.6256420
 103.8219548  94.2927877 175.5802164 105.2125354  94.6847619 176.5945471
 103.8700479  96.4341915 177.7645016 102.4677292  96.0407877 176.7752742
 103.7765892  96.6188654 174.7143420 105.1690986  97.0302493 175.7173350
 103.8267766  98.8197647 176.8487785 102.4310217  98.4043078 175.8493739
 105.1319208  99.4014951 174.7953196 103.6360697 100.3468999 174.9033585
 103.7358333  98.9738719 173.7873785 104.2040542  88.2829619 179.9561353
 102.6616585  89.1635741 179.7657896 103.6146181  91.0840562 181.0631875
 105.1498946  90.2227973 181.2152741 103.9117371  88.4300534 182.5070741
 102.4314861  89.3880040 182.3465077 103.5915386  91.3413520 183.4244737
 105.0505863  90.3674758 183.6041920 103.7996747  88.7708178 185.0748961
 102.3449449  89.7631222 184.8988868 103.5711846  91.7322743 185.8536315
 105.0214191  90.7448192 186.0291142 103.7907464  89.2091405 187.5771609
 102.3390941  90.1983802 187.4036289 105.0193061  91.1736533 188.5301465
 103.5709240  90.7802630 189.4742081 103.5547896  92.1624462 188.3635654
 104.1310187  89.4842503 176.4453470 102.6329227  89.2052412 177.3449759
 105.1097693  87.4209570 176.9492213 103.5840395  87.2149919 176.3368611
 104.2430450  86.8257473 179.3148266 103.9807210  85.6101249 178.1314306
 101.7955027  87.6714619 178.7999115 101.9388803  86.1026479 179.5764420
 101.8253367  84.9531193 177.4087990 101.8149557  86.4767440 176.5367341
  99.6622828  87.1190482 177.4753644  99.5834417  85.5899961 178.3677258
  99.8781578  84.3416438 176.1843392  99.9237044  85.8741868 175.3187975
  97.5648940  84.8721213 176.9805217  97.6841443  84.8380585 175.2085860
  97.6171053  86.3943538 176.0613583 112.1490000  82.6040000 170.8490000
 101.7340000  94.5680000 180.1460000 108.0018435  97.0712258 181.0848018
 106.4726208  97.0803423 181.0848476 105.9079748  95.6583454 181.0839514
 104.3797844  95.6649019 181.0833803 103.8082430  94.2650000 181.0830000
 102.4540000  94.2650000 181.0830000 104.4584269  93.2327992 181.0824242
 101.5470000  95.1690000 178.2880000 101.1759627  95.1686082 179.4214083
 101.1729482  94.5526945 181.0854991 108.3710424  96.5368952 181.9682020
 108.3717372  96.5359623 180.2032715 106.1092267  97.6199011 180.2024328
 106.1081634  97.6199044 181.9673625 106.2741151  95.1144740 181.9629224
 106.2740361  95.1159952 180.2027225 104.0125586  96.1833983 180.1911832
 104.0127875  96.1828719 181.9766810 102.0617631  95.1583881 181.0830000
 110.6800000 104.0060000  68.5660000 112.1297774 111.1072005  69.9921438
 110.6206515 111.0217848  69.9052115 110.0609757 110.1186163  70.9962000
 108.5622477 110.0630210  70.8293451 107.9431405 109.1962373  71.9023042
 106.4368159 109.3281808  71.8277451 105.8190844 108.5270000  70.6790000
 104.2730000 108.5270000  70.6790000 103.6656962 109.9537263  70.6790000
 104.1635752 110.8802788  69.5664628 103.6088467 112.2937891  69.7890727
 104.1163630 113.2572987  68.7210697 103.5644346 114.6684171  68.9418251
 104.0729851 115.6086350  67.8466481 103.5262930 117.0237717  68.0237523
 104.0388686 117.9411607  66.9258111 103.7495855 107.8771111  72.0260708
 104.0684433 108.6950878  73.2704143 103.5263105 108.0554233  74.5448002
 103.9543195 108.9193543  75.7249314 103.4380424 108.3980436  77.0595243
 103.9259724 109.3118103  78.1832741 103.4365095 108.8330681  79.5404484
 103.9243657 109.7440514  80.6543876 103.7181881 107.6563906  69.5126574
 104.0717005 106.1705280  69.4024780 103.6779989 105.2358091  70.5509994
 102.1699551 105.2511187  70.8059279 101.4954240 104.6012166  69.6154070
  99.9870012 104.6719084  69.6240253  99.5068935 103.9763068  68.3525470
  97.9988128 103.9730083  68.2604067 110.2180000 104.2740000  67.6110000
 110.1410455 103.9033397  67.6186543 110.0585611 103.5714972  69.3585043
 112.4249754 111.5086320  70.9678291 112.5651727 110.1052427  69.9024485
 110.3179720 110.6346836  68.9250912 110.1788237 112.0214455  70.0048742
 110.3242239 110.5118512  71.9832884 110.4894698 109.1097144  70.9169043
 108.3053187 109.6777845  69.8425598 108.1488951 111.0810287  70.9003450
 108.2772658 109.5342563  72.8885970 108.2573866 108.1507500  71.7985358
 106.1477068 110.3839578  71.7825596 106.1246052 108.9863389  72.7948530
 106.1393425 107.4839625  70.7283618 106.1333881 108.9294737  69.7112644
 103.9122357 110.4226140  71.6214736 102.5773203 109.8396983  70.6252458
 103.8430002 110.5277926  68.5804638 105.2567742 110.9365951  69.5579587
 103.9129731 112.6535757  70.7801851 102.5125120 112.2642478  69.7766420
 103.8219548 112.8957877  67.7312164 105.2125354 113.2877619  68.7455471
 103.8700479 115.0371915  69.9155016 102.4677292 114.6437877  68.9262742
 103.7765892 115.2218654  66.8653420 105.1690986 115.6332493  67.8683350
 103.8267766 117.4227647  68.9997785 102.4310217 117.0073078  68.0003739
 105.1319208 118.0044951  66.9463196 103.6360697 118.9498999  67.0543585
 103.7358333 117.5768719  65.9383785 104.2040542 106.8859619  72.1071353
 102.6616585 107.7665741  71.9167896 103.6146181 109.6870562  73.2141876
 105.1498946 108.8257973  73.3662741 103.9117371 107.0330534  74.6580741
 102.4314861 107.9910040  74.4975076 103.5915385 109.9443520  75.5754737
 105.0505863 108.9704758  75.7551921 103.7996746 107.3738177  77.2258960
 102.3449449 108.3661222  77.0498867 103.5711845 110.3352742  78.0046315
 105.0214190 109.3478191  78.1801142 103.7907463 107.8121405  79.7281609
 102.3390940 108.8013802  79.5546289 105.0193060 109.7766532  80.6811465
 103.5709239 109.3832630  81.6252081 103.5547895 110.7654461  80.5145654
 104.1310188 108.0872503  68.5963470 102.6329227 107.8082412  69.4959758
 105.1097693 106.0239571  69.1002213 103.5840396 105.8179919  68.4878611
 104.2430450 105.4287473  71.4658266 103.9807210 104.2131249  70.2824305
 101.7955027 106.2744618  70.9509114 101.9388804 104.7056479  71.7274419
 101.8253368 103.5561193  69.5597989 101.8149557 105.0797440  68.6877341
  99.6622828 105.7220481  69.6263643  99.5834417 104.1929961  70.5187257
  99.8781578 102.9446438  68.3353391  99.9237045 104.4771868  67.4697974
  97.5648941 103.4751213  69.1315216  97.6841444 103.4410585  67.3595859
  97.6171053 104.9973538  68.2123582 112.1490000 101.2070000  63.0000000
 101.7340000 113.1710000  72.2970000 108.0018435 115.6742258  73.2358018
 106.4726208 115.6833423  73.2358476 105.9079748 114.2613454  73.2349514
 104.3797844 114.2679019  73.2343803 103.8082430 112.8680000  73.2340000
 102.4540000 112.8680000  73.2340000 104.4584269 111.8357992  73.2334242
 101.5470000 113.7720000  70.4390000 101.1759627 113.7716082  71.5724083
 101.1729482 113.1556945  73.2364991 108.3710424 115.1398952  74.1192020
 108.3717372 115.1389623  72.3542715 106.1092267 116.2229011  72.3534328
 106.1081634 116.2229044  74.1183625 106.2741151 113.7174740  74.1139224
 106.2740361 113.7189952  72.3537225 104.0125586 114.7863983  72.3421832
 104.0127875 114.7858719  74.1276810 102.0617631 113.7613881  73.2340000
 110.6800000 104.0060000  86.5410000 112.1297774 111.1072005  87.9671438
 110.6206515 111.0217848  87.8802115 110.0609757 110.1186163  88.9712000
 108.5622477 110.0630210  88.8043451 107.9431405 109.1962373  89.8773042
 106.4368159 109.3281808  89.8027451 105.8190844 108.5270000  88.6540000
 104.2730000 108.5270000  88.6540000 103.6656962 109.9537263  88.6540000
 104.1635752 110.8802788  87.5414628 103.6088467 112.2937891  87.7640727
 104.1163630 113.2572987  86.6960697 103.5644346 114.6684171  86.9168251
 104.0729851 115.6086350  85.8216481 103.5262930 117.0237717  85.9987523
 104.0388686 117.9411607  84.9008111 103.7495855 107.8771111  90.0010708
 104.0684433 108.6950878  91.2454143 103.5263105 108.0554233  92.5198002
 103.9543195 108.9193543  93.6999314 103.4380424 108.3980436  95.0345243
 103.9259724 109.3118103  96.1582741 103.4365095 108.8330681  97.5154484
 103.9243657 109.7440514  98.6293876 103.7181881 107.6563906  87.4876574
 104.0717005 106.1705280  87.3774780 103.6779989 105.2358091  88.5259994
 102.1699551 105.2511187  88.7809279 101.4954240 104.6012166  87.5904070
  99.9870012 104.6719084  87.5990253  99.5068935 103.9763068  86.3275470
  97.9988128 103.9730083  86.2354067 110.2180000 104.2740000  85.5860000
 110.1410455 103.9033397  85.5936543 110.0585611 103.5714972  87.3335043
 112.4249754 111.5086320  88.9428291 112.5651727 110.1052427  87.8774485
 110.3179720 110.6346836  86.9000912 110.1788237 112.0214455  87.9798742
 110.3242239 110.5118512  89.9582884 110.4894698 109.1097144  88.8919043
 108.3053187 109.6777845  87.8175598 108.1488951 111.0810287  88.8753450
 108.2772658 109.5342563  90.8635970 108.2573866 108.1507500  89.7735358
 106.1477068 110.3839578  89.7575596 106.1246052 108.9863389  90.7698530
 106.1393425 107.4839625  88.7033618 106.1333881 108.9294737  87.6862644
 103.9122357 110.4226140  89.5964736 102.5773203 109.8396983  88.6002458
 103.8430002 110.5277926  86.5554638 105.2567742 110.9365951  87.5329587
 103.9129731 112.6535757  88.7551851 102.5125120 112.2642478  87.7516420
 103.8219548 112.8957877  85.7062164 105.2125354 113.2877619  86.7205471
 103.8700479 115.0371915  87.8905016 102.4677292 114.6437877  86.9012742
 103.7765892 115.2218654  84.8403420 105.1690986 115.6332493  85.8433350
 103.8267766 117.4227647  86.9747785 102.4310217 117.0073078  85.9753739
 105.1319208 118.0044951  84.9213196 103.6360697 118.9498999  85.0293585
 103.7358333 117.5768719  83.9133785 104.2040542 106.8859619  90.0821353
 102.6616585 107.7665741  89.8917896 103.6146181 109.6870562  91.1891876
 105.1498946 108.8257973  91.3412741 103.9117371 107.0330534  92.6330741
 102.4314861 107.9910040  92.4725076 103.5915385 109.9443520  93.5504737
 105.0505863 108.9704758  93.7301921 103.7996746 107.3738177  95.2008960
 102.3449449 108.3661222  95.0248867 103.5711845 110.3352742  95.9796315
 105.0214190 109.3478191  96.1551142 103.7907463 107.8121405  97.7031609
 102.3390940 108.8013802  97.5296289 105.0193060 109.7766532  98.6561465
 103.5709239 109.3832630  99.6002081 103.5547895 110.7654461  98.4895654
 104.1310188 108.0872503  86.5713470 102.6329227 107.8082412  87.4709758
 105.1097693 106.0239571  87.0752213 103.5840396 105.8179919  86.4628611
 104.2430450 105.4287473  89.4408266 103.9807210 104.2131249  88.2574305
 101.7955027 106.2744618  88.9259114 101.9388804 104.7056479  89.7024419
 101.8253368 103.5561193  87.5347989 101.8149557 105.0797440  86.6627341
  99.6622828 105.7220481  87.6013643  99.5834417 104.1929961  88.4937257
  99.8781578 102.9446438  86.3103391  99.9237045 104.4771868  85.4447974
  97.5648941 103.4751213  87.1065216  97.6841444 103.4410585  85.3345859
  97.6171053 104.9973538  86.1873582 112.1490000 101.2070000  80.9750000
 101.7340000 113.1710000  90.2720000 108.0018435 115.6742258  91.2108018
 106.4726208 115.6833423  91.2108476 105.9079748 114.2613454  91.2099514
 104.3797844 114.2679019  91.2093803 103.8082430 112.8680000  91.2090000
 102.4540000 112.8680000  91.2090000 104.4584269 111.8357992  91.2084242
 101.5470000 113.7720000  88.4140000 101.1759627 113.7716082  89.5474083
 101.1729482 113.1556945  91.2114991 108.3710424 115.1398952  92.0942020
 108.3717372 115.1389623  90.3292715 106.1092267 116.2229011  90.3284328
 106.1081634 116.2229044  92.0933625 106.2741151 113.7174740  92.0889224
 106.2740361 113.7189952  90.3287225 104.0125586 114.7863983  90.3171832
 104.0127875 114.7858719  92.1026810 102.0617631 113.7613881  91.2090000
 110.6800000 104.0060000 104.5160000 112.1297774 111.1072005 105.9421438
 110.6206515 111.0217848 105.8552115 110.0609757 110.1186163 106.9462000
 108.5622477 110.0630210 106.7793451 107.9431405 109.1962373 107.8523042
 106.4368159 109.3281808 107.7777451 105.8190844 108.5270000 106.6290000
 104.2730000 108.5270000 106.6290000 103.6656962 109.9537263 106.6290000
 104.1635752 110.8802788 105.5164628 103.6088467 112.2937891 105.7390727
 104.1163630 113.2572987 104.6710697 103.5644346 114.6684171 104.8918251
 104.0729851 115.6086350 103.7966481 103.5262930 117.0237717 103.9737523
 104.0388686 117.9411607 102.8758111 103.7495855 107.8771111 107.9760708
 104.0684433 108.6950878 109.2204143 103.5263105 108.0554233 110.4948002
 103.9543195 108.9193543 111.6749314 103.4380424 108.3980436 113.0095243
 103.9259724 109.3118103 114.1332741 103.4365095 108.8330681 115.4904484
 103.9243657 109.7440514 116.6043876 103.7181881 107.6563906 105.4626574
 104.0717005 106.1705280 105.3524780 103.6779989 105.2358091 106.5009994
 102.1699551 105.2511187 106.7559279 101.4954240 104.6012166 105.5654070
  99.9870012 104.6719084 105.5740253  99.5068935 103.9763068 104.3025470
  97.9988128 103.9730083 104.2104067 110.2180000 104.2740000 103.5610000
 110.1410455 103.9033397 103.5686543 110.0585611 103.5714972 105.3085043
 112.4249754 111.5086320 106.9178291 112.5651727 110.1052427 105.8524485
 110.3179720 110.6346836 104.8750912 110.1788237 112.0214455 105.9548742
 110.3242239 110.5118512 107.9332884 110.4894698 109.1097144 106.8669043
 108.3053187 109.6777845 105.7925598 108.1488951 111.0810287 106.8503450
 108.2772658 109.5342563 108.8385970 108.2573866 108.1507500 107.7485358
 106.1477068 110.3839578 107.7325596 106.1246052 108.9863389 108.7448530
 106.1393425 107.4839625 106.6783618 106.1333881 108.9294737 105.6612644
 103.9122357 110.4226140 107.5714736 102.5773203 109.8396983 106.5752458
 103.8430002 110.5277926 104.5304638 105.2567742 110.9365951 105.5079587
 103.9129731 112.6535757 106.7301851 102.5125120 112.2642478 105.7266420
 103.8219548 112.8957877 103.6812164 105.2125354 113.2877619 104.6955471
 103.8700479 115.0371915 105.8655016 102.4677292 114.6437877 104.8762742
 103.7765892 115.2218654 102.8153420 105.1690986 115.6332493 103.8183350
 103.8267766 117.4227647 104.9497785 102.4310217 117.0073078 103.9503739
 105.1319208 118.0044951 102.8963196 103.6360697 118.9498999 103.0043585
 103.7358333 117.5768719 101.8883785 104.2040542 106.8859619 108.0571353
 102.6616585 107.7665741 107.8667896 103.6146181 109.6870562 109.1641876
 105.1498946 108.8257973 109.3162741 103.9117371 107.0330534 110.6080741
 102.4314861 107.9910040 110.4475076 103.5915385 109.9443520 111.5254737
 105.0505863 108.9704758 111.7051921 103.7996746 107.3738177 113.1758960
 102.3449449 108.3661222 112.9998867 103.5711845 110.3352742 113.9546315
 105.0214190 109.3478191 114.1301142 103.7907463 107.8121405 115.6781609
 102.3390940 108.8013802 115.5046289 105.0193060 109.7766532 116.6311465
 103.5709239 109.3832630 117.5752081 103.5547895 110.7654461 116.4645654
 104.1310188 108.0872503 104.5463470 102.6329227 107.8082412 105.4459758
 105.1097693 106.0239571 105.0502213 103.5840396 105.8179919 104.4378611
 104.2430450 105.4287473 107.4158266 103.9807210 104.2131249 106.2324305
 101.7955027 106.2744618 106.9009114 101.9388804 104.7056479 107.6774419
 101.8253368 103.5561193 105.5097989 101.8149557 105.0797440 104.6377341
  99.6622828 105.7220481 105.5763643  99.5834417 104.1929961 106.4687257
  99.8781578 102.9446438 104.2853391  99.9237045 104.4771868 103.4197974
  97.5648941 103.4751213 105.0815216  97.6841444 103.4410585 103.3095859
  97.6171053 104.9973538 104.1623582 112.1490000 101.2070000  98.9500000
 101.7340000 113.1710000 108.2470000 108.0018435 115.6742258 109.1858018
 106.4726208 115.6833423 109.1858476 105.9079748 114.2613454 109.1849514
 104.3797844 114.2679019 109.1843803 103.8082430 112.8680000 109.1840000
 102.4540000 112.8680000 109.1840000 104.4584269 111.8357992 109.1834242
 101.5470000 113.7720000 106.3890000 101.1759627 113.7716082 107.5224083
 101.1729482 113.1556945 109.1864991 108.3710424 115.1398952 110.0692020
 108.3717372 115.1389623 108.3042715 106.1092267 116.2229011 108.3034328
 106.1081634 116.2229044 110.0683625 106.2741151 113.7174740 110.0639224
 106.2740361 113.7189952 108.3037225 104.0125586 114.7863983 108.2921832
 104.0127875 114.7858719 110.0776810 102.0617631 113.7613881 109.1840000
 110.6800000 104.0060000 122.4900000 112.1297774 111.1072005 123.9161438
 110.6206515 111.0217848 123.8292115 110.0609757 110.1186163 124.9202000
 108.5622477 110.0630210 124.7533451 107.9431405 109.1962373 125.8263042
 106.4368159 109.3281808 125.7517451 105.8190844 108.5270000 124.6030000
 104.2730000 108.5270000 124.6030000 103.6656962 109.9537263 124.6030000
 104.1635752 110.8802788 123.4904628 103.6088467 112.2937891 123.7130727
 104.1163630 113.2572987 122.6450697 103.5644346 114.6684171 122.8658251
 104.0729851 115.6086350 121.7706481 103.5262930 117.0237717 121.9477523
 104.0388686 117.9411607 120.8498111 103.7495855 107.8771111 125.9500708
 104.0684433 108.6950878 127.1944143 103.5263105 108.0554233 128.4688002
 103.9543195 108.9193543 129.6489314 103.4380424 108.3980436 130.9835243
 103.9259724 109.3118103 132.1072741 103.4365095 108.8330681 133.4644484
 103.9243657 109.7440514 134.5783876 103.7181881 107.6563906 123.4366574
 104.0717005 106.1705280 123.3264780 103.6779989 105.2358091 124.4749994
 102.1699551 105.2511187 124.7299279 101.4954240 104.6012166 123.5394070
  99.9870012 104.6719084 123.5480253  99.5068935 103.9763068 122.2765470
  97.9988128 103.9730083 122.1844067 110.2180000 104.2740000 121.5350000
 110.1410455 103.9033397 121.5426543 110.0585611 103.5714972 123.2825043
 112.4249754 111.5086320 124.8918291 112.5651727 110.1052427 123.8264485
 110.3179720 110.6346836 122.8490912 110.1788237 112.0214455 123.9288742
 110.3242239 110.5118512 125.9072884 110.4894698 109.1097144 124.8409043
 108.3053187 109.6777845 123.7665598 108.1488951 111.0810287 124.8243450
 108.2772658 109.5342563 126.8125970 108.2573866 108.1507500 125.7225358
 106.1477068 110.3839578 125.7065596 106.1246052 108.9863389 126.7188530
 106.1393425 107.4839625 124.6523618 106.1333881 108.9294737 123.6352644
 103.9122357 110.4226140 125.5454736 102.5773203 109.8396983 124.5492458
 103.8430002 110.5277926 122.5044638 105.2567742 110.9365951 123.4819587
 103.9129731 112.6535757 124.7041851 102.5125120 112.2642478 123.7006420
 103.8219548 112.8957877 121.6552164 105.2125354 113.2877619 122.6695471
 103.8700479 115.0371915 123.8395016 102.4677292 114.6437877 122.8502742
 103.7765892 115.2218654 120.7893420 105.1690986 115.6332493 121.7923350
 103.8267766 117.4227647 122.9237785 102.4310217 117.0073078 121.9243739
 105.1319208 118.0044951 120.8703196 103.6360697 118.9498999 120.9783585
 103.7358333 117.5768719 119.8623785 104.2040542 106.8859619 126.0311353
 102.6616585 107.7665741 125.8407896 103.6146181 109.6870562 127.1381876
 105.1498946 108.8257973 127.2902741 103.9117371 107.0330534 128.5820741
 102.4314861 107.9910040 128.4215076 103.5915385 109.9443520 129.4994737
 105.0505863 108.9704758 129.6791921 103.7996746 107.3738177 131.1498960
 102.3449449 108.3661222 130.9738867 103.5711845 110.3352742 131.9286315
 105.0214190 109.3478191 132.1041142 103.7907463 107.8121405 133.6521609
 102.3390940 108.8013802 133.4786289 105.0193060 109.7766532 134.6051465
 103.5709239 109.3832630 135.5492081 103.5547895 110.7654461 134.4385654
 104.1310188 108.0872503 122.5203470 102.6329227 107.8082412 123.4199758
 105.1097693 106.0239571 123.0242213 103.5840396 105.8179919 122.4118611
 104.2430450 105.4287473 125.3898266 103.9807210 104.2131249 124.2064305
 101.7955027 106.2744618 124.8749114 101.9388804 104.7056479 125.6514419
 101.8253368 103.5561193 123.4837989 101.8149557 105.0797440 122.6117341
  99.6622828 105.7220481 123.5503643  99.5834417 104.1929961 124.4427257
  99.8781578 102.9446438 122.2593391  99.9237045 104.4771868 121.3937974
  97.5648941 103.4751213 123.0555216  97.6841444 103.4410585 121.2835859
  97.6171053 104.9973538 122.1363582 112.1490000 101.2070000 116.9240000
 101.7340000 113.1710000 126.2210000 108.0018435 115.6742258 127.1598018
 106.4726208 115.6833423 127.1598476 105.9079748 114.2613454 127.1589514
 104.3797844 114.2679019 127.1583803 103.8082430 112.8680000 127.1580000
 102.4540000 112.8680000 127.1580000 104.4584269 111.8357992 127.1574242
 101.5470000 113.7720000 124.3630000 101.1759627 113.7716082 125.4964083
 101.1729482 113.1556945 127.1604991 108.3710424 115.1398952 128.0432020
 108.3717372 115.1389623 126.2782715 106.1092267 116.2229011 126.2774328
 106.1081634 116.2229044 128.0423625 106.2741151 113.7174740 128.0379224
 106.2740361 113.7189952 126.2777225 104.0125586 114.7863983 126.2661832
 104.0127875 114.7858719 128.0516810 102.0617631 113.7613881 127.1580000
 110.6800000 104.0060000 140.4650000 112.1297774 111.1072005 141.8911438
 110.6206515 111.0217848 141.8042115 110.0609757 110.1186163 142.8952000
 108.5622477 110.0630210 142.7283451 107.9431405 109.1962373 143.8013042
 106.4368159 109.3281808 143.7267451 105.8190844 108.5270000 142.5780000
 104.2730000 108.5270000 142.5780000 103.6656962 109.9537263 142.5780000
 104.1635752 110.8802788 141.4654628 103.6088467 112.2937891 141.6880727
 104.1163630 113.2572987 140.6200697 103.5644346 114.6684171 140.8408251
 104.0729851 115.6086350 139.7456481 103.5262930 117.0237717 139.9227523
 104.0388686 117.9411607 138.8248111 103.7495855 107.8771111 143.9250708
 104.0684433 108.6950878 145.1694143 103.5263105 108.0554233 146.4438002
 103.9543195 108.9193543 147.6239314 103.4380424 108.3980436 148.9585243
 103.9259724 109.3118103 150.0822741 103.4365095 108.8330681 151.4394484
 103.9243657 109.7440514 152.5533876 103.7181881 107.6563906 141.4116574
 104.0717005 106.1705280 141.3014780 103.6779989 105.2358091 142.4499994
 102.1699551 105.2511187 142.7049279 101.4954240 104.6012166 141.5144070
  99.9870012 104.6719084 141.5230253  99.5068935 103.9763068 140.2515470
  97.9988128 103.9730083 140.1594067 110.2180000 104.2740000 139.5100000
 110.1410455 103.9033397 139.5176543 110.0585611 103.5714972 141.2575043
 112.4249754 111.5086320 142.8668291 112.5651727 110.1052427 141.8014485
 110.3179720 110.6346836 140.8240912 110.1788237 112.0214455 141.9038742
 110.3242239 110.5118512 143.8822884 110.4894698 109.1097144 142.8159043
 108.3053187 109.6777845 141.7415598 108.1488951 111.0810287 142.7993450
 108.2772658 109.5342563 144.7875970 108.2573866 108.1507500 143.6975358
 106.1477068 110.3839578 143.6815596 106.1246052 108.9863389 144.6938530
 106.1393425 107.4839625 142.6273618 106.1333881 108.9294737 141.6102644
 103.9122357 110.4226140 143.5204736 102.5773203 109.8396983 142.5242458
 103.8430002 110.5277926 140.4794638 105.2567742 110.9365951 141.4569587
 103.9129731 112.6535757 142.6791851 102.5125120 112.2642478 141.6756420
 103.8219548 112.8957877 139.6302164 105.2125354 113.2877619 140.6445471
 103.8700479 115.0371915 141.8145016 102.4677292 114.6437877 140.8252742
 103.7765892 115.2218654 138.7643420 105.1690986 115.6332493 139.7673350
 103.8267766 117.4227647 140.8987785 102.4310217 117.0073078 139.8993739
 105.1319208 118.0044951 138.8453196 103.6360697 118.9498999 138.9533585
 103.7358333 117.5768719 137.8373785 104.2040542 106.8859619 144.0061353
 102.6616585 107.7665741 143.8157896 103.6146181 109.6870562 145.1131876
 105.1498946 108.8257973 145.2652741 103.9117371 107.0330534 146.5570741
 102.4314861 107.9910040 146.3965076 103.5915385 109.9443520 147.4744737
 105.0505863 108.9704758 147.6541921 103.7996746 107.3738177 149.1248960
 102.3449449 108.3661222 148.9488867 103.5711845 110.3352742 149.9036315
 105.0214190 109.3478191 150.0791142 103.7907463 107.8121405 151.6271609
 102.3390940 108.8013802 151.4536289 105.0193060 109.7766532 152.5801465
 103.5709239 109.3832630 153.5242081 103.5547895 110.7654461 152.4135654
 104.1310188 108.0872503 140.4953470 102.6329227 107.8082412 141.3949758
 105.1097693 106.0239571 140.9992213 103.5840396 105.8179919 140.3868611
 104.2430450 105.4287473 143.3648266 103.9807210 104.2131249 142.1814305
 101.7955027 106.2744618 142.8499114 101.9388804 104.7056479 143.6264419
 101.8253368 103.5561193 141.4587989 101.8149557 105.0797440 140.5867341
  99.6622828 105.7220481 141.5253643  99.5834417 104.1929961 142.4177257
  99.8781578 102.9446438 140.2343391  99.9237045 104.4771868 139.3687974
  97.5648941 103.4751213 141.0305216  97.6841444 103.4410585 139.2585859
  97.6171053 104.9973538 140.1113582 112.1490000 101.2070000 134.8990000
 101.7340000 113.1710000 144.1960000 108.0018435 115.6742258 145.1348018
 106.4726208 115.6833423 145.1348476 105.9079748 114.2613454 145.1339514
 104.3797844 114.2679019 145.1333803 103.8082430 112.8680000 145.1330000
 102.4540000 112.8680000 145.1330000 104.4584269 111.8357992 145.1324242
 101.5470000 113.7720000 142.3380000 101.1759627 113.7716082 143.4714083
 101.1729482 113.1556945 145.1354991 108.3710424 115.1398952 146.0182020
 108.3717372 115.1389623 144.2532715 106.1092267 116.2229011 144.2524328
 106.1081634 116.2229044 146.0173625 106.2741151 113.7174740 146.0129224
 106.2740361 113.7189952 144.2527225 104.0125586 114.7863983 144.2411832
 104.0127875 114.7858719 146.0266810 102.0617631 113.7613881 145.1330000
 110.6800000 104.0060000 158.4400000 112.1297774 111.1072005 159.8661438
 110.6206515 111.0217848 159.7792115 110.0609757 110.1186163 160.8702000
 108.5622477 110.0630210 160.7033451 107.9431405 109.1962373 161.7763042
 106.4368159 109.3281808 161.7017451 105.8190844 108.5270000 160.5530000
 104.2730000 108.5270000 160.5530000 103.6656962 109.9537263 160.5530000
 104.1635752 110.8802788 159.4404628 103.6088467 112.2937891 159.6630727
 104.1163630 113.2572987 158.5950697 103.5644346 114.6684171 158.8158251
 104.0729851 115.6086350 157.7206481 103.5262930 117.0237717 157.8977523
 104.0388686 117.9411607 156.7998111 103.7495855 107.8771111 161.9000708
 104.0684433 108.6950878 163.1444143 103.5263105 108.0554233 164.4188002
 103.9543195 108.9193543 165.5989314 103.4380424 108.3980436 166.9335243
 103.9259724 109.3118103 168.0572741 103.4365095 108.8330681 169.4144484
 103.9243657 109.7440514 170.5283876 103.7181881 107.6563906 159.3866574
 104.0717005 106.1705280 159.2764780 103.6779989 105.2358091 160.4249994
 102.1699551 105.2511187 160.6799279 101.4954240 104.6012166 159.4894070
  99.9870012 104.6719084 159.4980253  99.5068935 103.9763068 158.2265470
  97.9988128 103.9730083 158.1344067 110.2180000 104.2740000 157.4850000
 110.1410455 103.9033397 157.4926543 110.0585611 103.5714972 159.2325043
 112.4249754 111.5086320 160.8418291 112.5651727 110.1052427 159.7764485
 110.3179720 110.6346836 158.7990912 110.1788237 112.0214455 159.8788742
 110.3242239 110.5118512 161.8572884 110.4894698 109.1097144 160.7909043
 108.3053187 109.6777845 159.7165598 108.1488951 111.0810287 160.7743450
 108.2772658 109.5342563 162.7625970 108.2573866 108.1507500 161.6725358
 106.1477068 110.3839578 161.6565596 106.1246052 108.9863389 162.6688530
 106.1393425 107.4839625 160.6023618 106.1333881 108.9294737 159.5852644
 103.9122357 110.4226140 161.4954736 102.5773203 109.8396983 160.4992458
 103.8430002 110.5277926 158.4544638 105.2567742 110.9365951 159.4319587
 103.9129731 112.6535757 160.6541851 102.5125120 112.2642478 159.6506420
 103.8219548 112.8957877 157.6052164 105.2125354 113.2877619 158.6195471
 103.8700479 115.0371915 159.7895016 102.4677292 114.6437877 158.8002742
 103.7765892 115.2218654 156.7393420 105.1690986 115.6332493 157.7423350
 103.8267766 117.4227647 158.8737785 102.4310217 117.0073078 157.8743739
 105.1319208 118.0044951 156.8203196 103.6360697 118.9498999 156.9283585
 103.7358333 117.5768719 155.8123785 104.2040542 106.8859619 161.9811353
 102.6616585 107.7665741 161.7907896 103.6146181 109.6870562 163.0881876
 105.1498946 108.8257973 163.2402741 103.9117371 107.0330534 164.5320741
 102.4314861 107.9910040 164.3715076 103.5915385 109.9443520 165.4494737
 105.0505863 108.9704758 165.6291921 103.7996746 107.3738177 167.0998960
 102.3449449 108.3661222 166.9238867 103.5711845 110.3352742 167.8786315
 105.0214190 109.3478191 168.0541142 103.7907463 107.8121405 169.6021609
 102.3390940 108.8013802 169.4286289 105.0193060 109.7766532 170.5551465
 103.5709239 109.3832630 171.4992081 103.5547895 110.7654461 170.3885654
 104.1310188 108.0872503 158.4703470 102.6329227 107.8082412 159.3699758
 105.1097693 106.0239571 158.9742213 103.5840396 105.8179919 158.3618611
 104.2430450 105.4287473 161.3398266 103.9807210 104.2131249 160.1564305
 101.7955027 106.2744618 160.8249114 101.9388804 104.7056479 161.6014419
 101.8253368 103.5561193 159.4337989 101.8149557 105.0797440 158.5617341
  99.6622828 105.7220481 159.5003643  99.5834417 104.1929961 160.3927257
  99.8781578 102.9446438 158.2093391  99.9237045 104.4771868 157.3437974
  97.5648941 103.4751213 159.0055216  97.6841444 103.4410585 157.2335859
  97.6171053 104.9973538 158.0863582 112.1490000 101.2070000 152.8740000
 101.7340000 113.1710000 162.1710000 108.0018435 115.6742258 163.1098018
 106.4726208 115.6833423 163.1098476 105.9079748 114.2613454 163.1089514
 104.3797844 114.2679019 163.1083803 103.8082430 112.8680000 163.1080000
 102.4540000 112.8680000 163.1080000 104.4584269 111.8357992 163.1074242
 101.5470000 113.7720000 160.3130000 101.1759627 113.7716082 161.4464083
 101.1729482 113.1556945 163.1104991 108.3710424 115.1398952 163.9932020
 108.3717372 115.1389623 162.2282715 106.1092267 116.2229011 162.2274328
 106.1081634 116.2229044 163.9923625 106.2741151 113.7174740 163.9879224
 106.2740361 113.7189952 162.2277225 104.0125586 114.7863983 162.2161832
 104.0127875 114.7858719 164.0016810 102.0617631 113.7613881 163.1080000
 110.6800000 104.0060000 176.4150000 112.1297774 111.1072005 177.8411438
 110.6206515 111.0217848 177.7542115 110.0609757 110.1186163 178.8452000
 108.5622477 110.0630210 178.6783451 107.9431405 109.1962373 179.7513042
 106.4368159 109.3281808 179.6767451 105.8190844 108.5270000 178.5280000
 104.2730000 108.5270000 178.5280000 103.6656962 109.9537263 178.5280000
 104.1635752 110.8802788 177.4154628 103.6088467 112.2937891 177.6380727
 104.1163630 113.2572987 176.5700697 103.5644346 114.6684171 176.7908251
 104.0729851 115.6086350 175.6956481 103.5262930 117.0237717 175.8727523
 104.0388686 117.9411607 174.7748111 103.7495855 107.8771111 179.8750708
 104.0684433 108.6950878 181.1194143 103.5263105 108.0554233 182.3938002
 103.9543195 108.9193543 183.5739314 103.4380424 108.3980436 184.9085243
 103.9259724 109.3118103 186.0322741 103.4365095 108.8330681 187.3894484
 103.9243657 109.7440514 188.5033876 103.7181881 107.6563906 177.3616574
 104.0717005 106.1705280 177.2514780 103.6779989 105.2358091 178.3999994
 102.1699551 105.2511187 178.6549279 101.4954240 104.6012166 177.4644070
  99.9870012 104.6719084 177.4730253  99.5068935 103.9763068 176.2015470
  97.9988128 103.9730083 176.1094067 110.2180000 104.2740000 175.4600000
 110.1410455 103.9033397 175.4676543 110.0585611 103.5714972 177.2075043
 112.4249754 111.5086320 178.8168291 112.5651727 110.1052427 177.7514485
 110.3179720 110.6346836 176.7740912 110.1788237 112.0214455 177.8538742
 110.3242239 110.5118512 179.8322884 110.4894698 109.1097144 178.7659043
 108.3053187 109.6777845 177.6915598 108.1488951 111.0810287 178.7493450
 108.2772658 109.5342563 180.7375970 108.2573866 108.1507500 179.6475358
 106.1477068 110.3839578 179.6315596 106.1246052 108.9863389 180.6438530
 106.1393425 107.4839625 178.5773618 106.1333881 108.9294737 177.5602644
 103.9122357 110.4226140 179.4704736 102.5773203 109.8396983 178.4742458
 103.8430002 110.5277926 176.4294638 105.2567742 110.9365951 177.4069587
 103.9129731 112.6535757 178.6291851 102.5125120 112.2642478 177.6256420
 103.8219548 112.8957877 175.5802164 105.2125354 113.2877619 176.5945471
 103.8700479 115.0371915 177.7645016 102.4677292 114.6437877 176.7752742
 103.7765892 115.2218654 174.7143420 105.1690986 115.6332493 175.7173350
 103.8267766 117.4227647 176.8487785 102.4310217 117.0073078 175.8493739
 105.1319208 118.0044951 174.7953196 103.6360697 118.9498999 174.9033585
 103.7358333 117.5768719 173.7873785 104.2040542 106.8859619 179.9561353
 102.6616585 107.7665741 179.7657896 103.6146181 109.6870562 181.0631876
 105.1498946 108.8257973 181.2152741 103.9117371 107.0330534 182.5070741
 102.4314861 107.9910040 182.3465076 103.5915385 109.9443520 183.4244737
 105.0505863 108.9704758 183.6041921 103.7996746 107.3738177 185.0748960
 102.3449449 108.3661222 184.8988867 103.5711845 110.3352742 185.8536315
 105.0214190 109.3478191 186.0291142 103.7907463 107.8121405 187.5771609
 102.3390940 108.8013802 187.4036289 105.0193060 109.7766532 188.5301465
 103.5709239 109.3832630 189.4742081 103.5547895 110.7654461 188.3635654
 104.1310188 108.0872503 176.4453470 102.6329227 107.8082412 177.3449758
 105.1097693 106.0239571 176.9492213 103.5840396 105.8179919 176.3368611
 104.2430450 105.4287473 179.3148266 103.9807210 104.2131249 178.1314305
 101.7955027 106.2744618 178.7999114 101.9388804 104.7056479 179.5764419
 101.8253368 103.5561193 177.4087989 101.8149557 105.0797440 176.5367341
  99.6622828 105.7220481 177.4753643  99.5834417 104.1929961 178.3677257
  99.8781578 102.9446438 176.1843391  99.9237045 104.4771868 175.3187974
  97.5648941 103.4751213 176.9805216  97.6841444 103.4410585 175.2085859
  97.6171053 104.9973538 176.0613582 112.1490000 101.2070000 170.8490000
 101.7340000 113.1710000 180.1460000 108.0018435 115.6742258 181.0848018
 106.4726208 115.6833423 181.0848476 105.9079748 114.2613454 181.0839514
 104.3797844 114.2679019 181.0833803 103.8082430 112.8680000 181.0830000
 102.4540000 112.8680000 181.0830000 104.4584269 111.8357992 181.0824242
 101.5470000 113.7720000 178.2880000 101.1759627 113.7716082 179.4214083
 101.1729482 113.1556945 181.0854991 108.3710424 115.1398952 181.9682020
 108.3717372 115.1389623 180.2032715 106.1092267 116.2229011 180.2024328
 106.1081634 116.2229044 181.9673625 106.2741151 113.7174740 181.9629224
 106.2740361 113.7189952 180.2027225 104.0125586 114.7863983 180.1911832
 104.0127875 114.7858719 181.9766810 102.0617631 113.7613881 181.0830000
 110.6800000 122.6100000  68.5660000 112.1297774 129.7112005  69.9921438
 110.6206515 129.6257848  69.9052115 110.0609757 128.7226163  70.9962000
 108.5622477 128.6670210  70.8293451 107.9431405 127.8002373  71.9023042
 106.4368159 127.9321808  71.8277451 105.8190844 127.1310000  70.6790000
 104.2730000 127.1310000  70.6790000 103.6656962 128.5577263  70.6790000
 104.1635752 129.4842788  69.5664628 103.6088467 130.8977891  69.7890727
 104.1163630 131.8612987  68.7210697 103.5644346 133.2724171  68.9418251
 104.0729851 134.2126350  67.8466481 103.5262930 135.6277717  68.0237523
 104.0388686 136.5451607  66.9258111 103.7495855 126.4811111  72.0260708
 104.0684433 127.2990878  73.2704143 103.5263105 126.6594233  74.5448002
 103.9543195 127.5233543  75.7249314 103.4380424 127.0020436  77.0595243
 103.9259724 127.9158103  78.1832741 103.4365095 127.4370681  79.5404484
 103.9243657 128.3480514  80.6543876 103.7181881 126.2603906  69.5126574
 104.0717005 124.7745280  69.4024780 103.6779989 123.8398091  70.5509994
 102.1699551 123.8551187  70.8059279 101.4954240 123.2052166  69.6154070
  99.9870012 123.2759084  69.6240253  99.5068935 122.5803068  68.3525470
  97.9988128 122.5770083  68.2604067 110.2180000 122.8780000  67.6110000
 110.1410455 122.5073397  67.6186543 110.0585611 122.1754972  69.3585043
 112.4249754 130.1126320  70.9678291 112.5651727 128.7092427  69.9024485
 110.3179720 129.2386836  68.9250912 110.1788237 130.6254455  70.0048742
 110.3242239 129.1158512  71.9832884 110.4894698 127.7137144  70.9169043
 108.3053187 128.2817845  69.8425598 108.1488951 129.6850287  70.9003450
 108.2772658 128.1382563  72.8885970 108.2573866 126.7547500  71.7985358
 106.1477068 128.9879578  71.7825596 106.1246052 127.5903389  72.7948530
 106.1393425 126.0879625  70.7283618 106.1333881 127.5334737  69.7112644
 103.9122357 129.0266140  71.6214736 102.5773203 128.4436983  70.6252458
 103.8430002 129.1317926  68.5804638 105.2567742 129.5405951  69.5579587
 103.9129731 131.2575757  70.7801851 102.5125120 130.8682478  69.7766420
 103.8219548 131.4997877  67.7312164 105.2125354 131.8917619  68.7455471
 103.8700479 133.6411915  69.9155016 102.4677292 133.2477877  68.9262742
 103.7765892 133.8258654  66.8653420 105.1690986 134.2372493  67.8683350
 103.8267766 136.0267647  68.9997785 102.4310217 135.6113078  68.0003739
 105.1319208 136.6084951  66.9463196 103.6360697 137.5538999  67.0543585
 103.7358333 136.1808719  65.9383785 104.2040542 125.4899619  72.1071353
 102.6616585 126.3705741  71.9167896 103.6146181 128.2910562  73.2141876
 105.1498946 127.4297973  73.3662741 103.9117371 125.6370534  74.6580741
 102.4314861 126.5950040  74.4975076 103.5915385 128.5483520  75.5754737
 105.0505863 127.5744758  75.7551921 103.7996746 125.9778177  77.2258960
 102.3449449 126.9701222  77.0498867 103.5711845 128.9392742  78.0046315
 105.0214190 127.9518191  78.1801142 103.7907463 126.4161405  79.7281609
 102.3390940 127.4053802  79.5546289 105.0193060 128.3806532  80.6811465
 103.5709239 127.9872630  81.6252081 103.5547895 129.3694461  80.5145654
 104.1310188 126.6912503  68.5963470 102.6329227 126.4122412  69.4959758
 105.1097693 124.6279571  69.1002213 103.5840396 124.4219919  68.4878611
 104.2430450 124.0327473  71.4658266 103.9807210 122.8171249  70.2824305
 101.7955027 124.8784618  70.9509114 101.9388804 123.3096479  71.7274419
 101.8253368 122.1601193  69.5597989 101.8149557 123.6837440  68.6877341
  99.6622828 124.3260481  69.6263643  99.5834417 122.7969961  70.5187257
  99.8781578 121.5486438  68.3353391  99.9237045 123.0811868  67.4697974
  97.5648941 122.0791213  69.1315216  97.6841444 122.0450585  67.3595859
  97.6171053 123.6013538  68.2123582 112.1490000 119.8110000  63.0000000
 101.7340000 131.7750000  72.2970000 108.0018435 134.2782258  73.2358018
 106.4726208 134.2873423  73.2358476 105.9079748 132.8653454  73.2349514
 104.3797844 132.8719019  73.2343803 103.8082430 131.4720000  73.2340000
 102.4540000 131.4720000  73.2340000 104.4584269 130.4397992  73.2334242
 101.5470000 132.3760000  70.4390000 101.1759627 132.3756082  71.5724083
 101.1729482 131.7596945  73.2364991 108.3710424 133.7438952  74.1192020
 108.3717372 133.7429623  72.3542715 106.1092267 134.8269011  72.3534328
 106.1081634 134.8269044  74.1183625 106.2741151 132.3214740  74.1139224
 106.2740361 132.3229952  72.3537225 104.0125586 133.3903983  72.3421832
 104.0127875 133.3898719  74.1276810 102.0617631 132.3653881  73.2340000
 110.6800000 122.6100000  86.5410000 112.1297774 129.7112005  87.9671438
 110.6206515 129.6257848  87.8802115 110.0609757 128.7226163  88.9712000
 108.5622477 128.6670210  88.8043451 107.9431405 127.8002373  89.8773042
 106.4368159 127.9321808  89.8027451 105.8190844 127.1310000  88.6540000
 104.2730000 127.1310000  88.6540000 103.6656962 128.5577263  88.6540000
 104.1635752 129.4842788  87.5414628 103.6088467 130.8977891  87.7640727
 104.1163630 131.8612987  86.6960697 103.5644346 133.2724171  86.9168251
 104.0729851 134.2126350  85.8216481 103.5262930 135.6277717  85.9987523
 104.0388686 136.5451607  84.9008111 103.7495855 126.4811111  90.0010708
 104.0684433 127.2990878  91.2454143 103.5263105 126.6594233  92.5198002
 103.9543195 127.5233543  93.6999314 103.4380424 127.0020436  95.0345243
 103.9259724 127.9158103  96.1582741 103.4365095 127.4370681  97.5154484
 103.9243657 128.3480514  98.6293876 103.7181881 126.2603906  87.4876574
 104.0717005 124.7745280  87.3774780 103.6779989 123.8398091  88.5259994
 102.1699551 123.8551187  88.7809279 101.4954240 123.2052166  87.5904070
  99.9870012 123.2759084  87.5990253  99.5068935 122.5803068  86.3275470
  97.9988128 122.5770083  86.2354067 110.2180000 122.8780000  85.5860000
 110.1410455 122.5073397  85.5936543 110.0585611 122.1754972  87.3335043
 112.4249754 130.1126320  88.9428291 112.5651727 128.7092427  87.8774485
 110.3179720 129.2386836  86.9000912 110.1788237 130.6254455  87.9798742
 110.3242239 129.1158512  89.9582884 110.4894698 127.7137144  88.8919043
 108.3053187 128.2817845  87.8175598 108.1488951 129.6850287  88.8753450
 108.2772658 128.1382563  90.8635970 108.2573866 126.7547500  89.7735358
 106.1477068 128.9879578  89.7575596 106.1246052 127.5903389  90.7698530
 106.1393425 126.0879625  88.7033618 106.1333881 127.5334737  87.6862644
 103.9122357 129.0266140  89.5964736 102.5773203 128.4436983  88.6002458
 103.8430002 129.1317926  86.5554638 105.2567742 129.5405951  87.5329587
 103.9129731 131.2575757  88.7551851 102.5125120 130.8682478  87.7516420
 103.8219548 131.4997877  85.7062164 105.2125354 131.8917619  86.7205471
 103.8700479 133.6411915  87.8905016 102.4677292 133.2477877  86.9012742
 103.7765892 133.8258654  84.8403420 105.1690986 134.2372493  85.8433350
 103.8267766 136.0267647  86.9747785 102.4310217 135.6113078  85.9753739
 105.1319208 136.6084951  84.9213196 103.6360697 137.5538999  85.0293585
 103.7358333 136.1808719  83.9133785 104.2040542 125.4899619  90.0821353
 102.6616585 126.3705741  89.8917896 103.6146181 128.2910562  91.1891876
 105.1498946 127.4297973  91.3412741 103.9117371 125.6370534  92.6330741
 102.4314861 126.5950040  92.4725076 103.5915385 128.5483520  93.5504737
 105.0505863 127.5744758  93.7301921 103.7996746 125.9778177  95.2008960
 102.3449449 126.9701222  95.0248867 103.5711845 128.9392742  95.9796315
 105.0214190 127.9518191  96.1551142 103.7907463 126.4161405  97.7031609
 102.3390940 127.4053802  97.5296289 105.0193060 128.3806532  98.6561465
 103.5709239 127.9872630  99.6002081 103.5547895 129.3694461  98.4895654
 104.1310188 126.6912503  86.5713470 102.6329227 126.4122412  87.4709758
 105.1097693 124.6279571  87.0752213 103.5840396 124.4219919  86.4628611
 104.2430450 124.0327473  89.4408266 103.9807210 122.8171249  88.2574305
 101.7955027 124.8784618  88.9259114 101.9388804 123.3096479  89.7024419
 101.8253368 122.1601193  87.5347989 101.8149557 123.6837440  86.6627341
  99.6622828 124.3260481  87.6013643  99.5834417 122.7969961  88.4937257
  99.8781578 121.5486438  86.3103391  99.9237045 123.0811868  85.4447974
  97.5648941 122.0791213  87.1065216  97.6841444 122.0450585  85.3345859
  97.6171053 123.6013538  86.1873582 112.1490000 119.8110000  80.9750000
 101.7340000 131.7750000  90.2720000 108.0018435 134.2782258  91.2108018
 106.4726208 134.2873423  91.2108476 105.9079748 132.8653454  91.2099514
 104.3797844 132.8719019  91.2093803 103.8082430 131.4720000  91.2090000
 102.4540000 131.4720000  91.2090000 104.4584269 130.4397992  91.2084242
 101.5470000 132.3760000  88.4140000 101.1759627 132.3756082  89.5474083
 101.1729482 131.7596945  91.2114991 108.3710424 133.7438952  92.0942020
 108.3717372 133.7429623  90.3292715 106.1092267 134.8269011  90.3284328
 106.1081634 134.8269044  92.0933625 106.2741151 132.3214740  92.0889224
 106.2740361 132.3229952  90.3287225 104.0125586 133.3903983  90.3171832
 104.0127875 133.3898719  92.1026810 102.0617631 132.3653881  91.2090000
 110.6800000 122.6100000 104.5160000 112.1297774 129.7112005 105.9421438
 110.6206515 129.6257848 105.8552115 110.0609757 128.7226163 106.9462000
 108.5622477 128.6670210 106.7793451 107.9431405 127.8002373 107.8523042
 106.4368159 127.9321808 107.7777451 105.8190844 127.1310000 106.6290000
 104.2730000 127.1310000 106.6290000 103.6656962 128.5577263 106.6290000
 104.1635752 129.4842788 105.5164628 103.6088467 130.8977891 105.7390727
 104.1163630 131.8612987 104.6710697 103.5644346 133.2724171 104.8918251
 104.0729851 134.2126350 103.7966481 103.5262930 135.6277717 103.9737523
 104.0388686 136.5451607 102.8758111 103.7495855 126.4811111 107.9760708
 104.0684433 127.2990878 109.2204143 103.5263105 126.6594233 110.4948002
 103.9543195 127.5233543 111.6749314 103.4380424 127.0020436 113.0095243
 103.9259724 127.9158103 114.1332741 103.4365095 127.4370681 115.4904484
 103.9243657 128.3480514 116.6043876 103.7181881 126.2603906 105.4626574
 104.0717005 124.7745280 105.3524780 103.6779989 123.8398091 106.5009994
 102.1699551 123.8551187 106.7559279 101.4954240 123.2052166 105.5654070
  99.9870012 123.2759084 105.5740253  99.5068935 122.5803068 104.3025470
  97.9988128 122.5770083 104.2104067 110.2180000 122.8780000 103.5610000
 110.1410455 122.5073397 103.5686543 110.0585611 122.1754972 105.3085043
 112.4249754 130.1126320 106.9178291 112.5651727 128.7092427 105.8524485
 110.3179720 129.2386836 104.8750912 110.1788237 130.6254455 105.9548742
 110.3242239 129.1158512 107.9332884 110.4894698 127.7137144 106.8669043
 108.3053187 128.2817845 105.7925598 108.1488951 129.6850287 106.8503450
 108.2772658 128.1382563 108.8385970 108.2573866 126.7547500 107.7485358
 106.1477068 128.9879578 107.7325596 106.1246052 127.5903389 108.7448530
 106.1393425 126.0879625 106.6783618 106.1333881 127.5334737 105.6612644
 103.9122357 129.0266140 107.5714736 102.5773203 128.4436983 106.5752458
 103.8430002 129.1317926 104.5304638 105.2567742 129.5405951 105.5079587
 103.9129731 131.2575757 106.7301851 102.5125120 130.8682478 105.7266420
 103.8219548 131.4997877 103.6812164 105.2125354 131.8917619 104.6955471
 103.8700479 133.6411915 105.8655016 102.4677292 133.2477877 104.8762742
 103.7765892 133.8258654 102.8153420 105.1690986 134.2372493 103.8183350
 103.8267766 136.0267647 104.9497785 102.4310217 135.6113078 103.9503739
 105.1319208 136.6084951 102.8963196 103.6360697 137.5538999 103.0043585
 103.7358333 136.1808719 101.8883785 104.2040542 125.4899619 108.0571353
 102.6616585 126.3705741 107.8667896 103.6146181 128.2910562 109.1641876
 105.1498946 127.4297973 109.3162741 103.9117371 125.6370534 110.6080741
 102.4314861 126.5950040 110.4475076 103.5915385 128.5483520 111.5254737
 105.0505863 127.5744758 111.7051921 103.7996746 125.9778177 113.1758960
 102.3449449 126.9701222 112.9998867 103.5711845 128.9392742 113.9546315
 105.0214190 127.9518191 114.1301142 103.7907463 126.4161405 115.6781609
 102.3390940 127.4053802 115.5046289 105.0193060 128.3806532 116.6311465
 103.5709239 127.9872630 117.5752081 103.5547895 129.3694461 116.4645654
 104.1310188 126.6912503 104.5463470 102.6329227 126.4122412 105.4459758
 105.1097693 124.6279571 105.0502213 103.5840396 124.4219919 104.4378611
 104.2430450 124.0327473 107.4158266 103.9807210 122.8171249 106.2324305
 101.7955027 124.8784618 106.9009114 101.9388804 123.3096479 107.6774419
 101.8253368 122.1601193 105.5097989 101.8149557 123.6837440 104.6377341
  99.6622828 124.3260481 105.5763643  99.5834417 122.7969961 106.4687257
  99.8781578 121.5486438 104.2853391  99.9237045 123.0811868 103.4197974
  97.5648941 122.0791213 105.0815216  97.6841444 122.0450585 103.3095859
  97.6171053 123.6013538 104.1623582 112.1490000 119.8110000  98.9500000
 101.7340000 131.7750000 108.2470000 108.0018435 134.2782258 109.1858018
 106.4726208 134.2873423 109.1858476 105.9079748 132.8653454 109.1849514
 104.3797844 132.8719019 109.1843803 103.8082430 131.4720000 109.1840000
 102.4540000 131.4720000 109.1840000 104.4584269 130.4397992 109.1834242
 101.5470000 132.3760000 106.3890000 101.1759627 132.3756082 107.5224083
 101.1729482 131.7596945 109.1864991 108.3710424 133.7438952 110.0692020
 108.3717372 133.7429623 108.3042715 106.1092267 134.8269011 108.3034328
 106.1081634 134.8269044 110.0683625 106.2741151 132.3214740 110.0639224
 106.2740361 132.3229952 108.3037225 104.0125586 133.3903983 108.2921832
 104.0127875 133.3898719 110.0776810 102.0617631 132.3653881 109.1840000
 110.6800000 122.6100000 122.4900000 112.1297774 129.7112005 123.9161438
 110.6206515 129.6257848 123.8292115 110.0609757 128.7226163 124.9202000
 108.5622477 128.6670210 124.7533451 107.9431405 127.8002373 125.8263042
 106.4368159 127.9321808 125.7517451 105.8190844 127.1310000 124.6030000
 104.2730000 127.1310000 124.6030000 103.6656962 128.5577263 124.6030000
 104.1635752 129.4842788 123.4904628 103.6088467 130.8977891 123.7130727
 104.1163630 131.8612987 122.6450697 103.5644346 133.2724171 122.8658251
 104.0729851 134.2126350 121.7706481 103.5262930 135.6277717 121.9477523
 104.0388686 136.5451607 120.8498111 103.7495855 126.4811111 125.9500708
 104.0684433 127.2990878 127.1944143 103.5263105 126.6594233 128.4688002
 103.9543195 127.5233543 129.6489314 103.4380424 127.0020436 130.9835243
 103.9259724 127.9158103 132.1072741 103.4365095 127.4370681 133.4644484
 103.9243657 128.3480514 134.5783876 103.7181881 126.2603906 123.4366574
 104.0717005 124.7745280 123.3264780 103.6779989 123.8398091 124.4749994
 102.1699551 123.8551187 124.7299279 101.4954240 123.2052166 123.5394070
  99.9870012 123.2759084 123.5480253  99.5068935 122.5803068 122.2765470
  97.9988128 122.5770083 122.1844067 110.2180000 122.8780000 121.5350000
 110.1410455 122.5073397 121.5426543 110.0585611 122.1754972 123.2825043
 112.4249754 130.1126320 124.8918291 112.5651727 128.7092427 123.8264485
 110.3179720 129.2386836 122.8490912 110.1788237 130.6254455 123.9288742
 110.3242239 129.1158512 125.9072884 110.4894698 127.7137144 124.8409043
 108.3053187 128.2817845 123.7665598 108.1488951 129.6850287 124.8243450
 108.2772658 128.1382563 126.8125970 108.2573866 126.7547500 125.7225358
 106.1477068 128.9879578 125.7065596 106.1246052 127.5903389 126.7188530
 106.1393425 126.0879625 124.6523618 106.1333881 127.5334737 123.6352644
 103.9122357 129.0266140 125.5454736 102.5773203 128.4436983 124.5492458
 103.8430002 129.1317926 122.5044638 105.2567742 129.5405951 123.4819587
 103.9129731 131.2575757 124.7041851 102.5125120 130.8682478 123.7006420
 103.8219548 131.4997877 121.6552164 105.2125354 131.8917619 122.6695471
 103.8700479 133.6411915 123.8395016 102.4677292 133.2477877 122.8502742
 103.7765892 133.8258654 120.7893420 105.1690986 134.2372493 121.7923350
 103.8267766 136.0267647 122.9237785 102.4310217 135.6113078 121.9243739
 105.1319208 136.6084951 120.8703196 103.6360697 137.5538999 120.9783585
 103.7358333 136.1808719 119.8623785 104.2040542 125.4899619 126.0311353
 102.6616585 126.3705741 125.8407896 103.6146181 128.2910562 127.1381876
 105.1498946 127.4297973 127.2902741 103.9117371 125.6370534 128.5820741
 102.4314861 126.5950040 128.4215076 103.5915385 128.5483520 129.4994737
 105.0505863 127.5744758 129.6791921 103.7996746 125.9778177 131.1498960
 102.3449449 126.9701222 130.9738867 103.5711845 128.9392742 131.9286315
 105.0214190 127.9518191 132.1041142 103.7907463 126.4161405 133.6521609
 102.3390940 127.4053802 133.4786289 105.0193060 128.3806532 134.6051465
 103.5709239 127.9872630 135.5492081 103.5547895 129.3694461 134.4385654
 104.1310188 126.6912503 122.5203470 102.6329227 126.4122412 123.4199758
 105.1097693 124.6279571 123.0242213 103.5840396 124.4219919 122.4118611
 104.2430450 124.0327473 125.3898266 103.9807210 122.8171249 124.2064305
 101.7955027 124.8784618 124.8749114 101.9388804 123.3096479 125.6514419
 101.8253368 122.1601193 123.4837989 101.8149557 123.6837440 122.6117341
  99.6622828 124.3260481 123.5503643  99.5834417 122.7969961 124.4427257
  99.8781578 121.5486438 122.2593391  99.9237045 123.0811868 121.3937974
  97.5648941 122.0791213 123.0555216  97.6841444 122.0450585 121.2835859
  97.6171053 123.6013538 122.1363582 112.1490000 119.8110000 116.9240000
 101.7340000 131.7750000 126.2210000 108.0018435 134.2782258 127.1598018
 106.4726208 134.2873423 127.1598476 105.9079748 132.8653454 127.1589514
 104.3797844 132.8719019 127.1583803 103.8082430 131.4720000 127.1580000
 102.4540000 131.4720000 127.1580000 104.4584269 130.4397992 127.1574242
 101.5470000 132.3760000 124.3630000 101.1759627 132.3756082 125.4964083
 101.1729482 131.7596945 127.1604991 108.3710424 133.7438952 128.0432020
 108.3717372 133.7429623 126.2782715 106.1092267 134.8269011 126.2774328
 106.1081634 134.8269044 128.0423625 106.2741151 132.3214740 128.0379224
 106.2740361 132.3229952 126.2777225 104.0125586 133.3903983 126.2661832
 104.0127875 133.3898719 128.0516810 102.0617631 132.3653881 127.1580000
 110.6800000 122.6100000 140.4650000 112.1297774 129.7112005 141.8911438
 110.6206515 129.6257848 141.8042115 110.0609757 128.7226163 142.8952000
 108.5622477 128.6670210 142.7283451 107.9431405 127.8002373 143.8013042
 106.4368159 127.9321808 143.7267451 105.8190844 127.1310000 142.5780000
 104.2730000 127.1310000 142.5780000 103.6656962 128.5577263 142.5780000
 104.1635752 129.4842788 141.4654628 103.6088467 130.8977891 141.6880727
 104.1163630 131.8612987 140.6200697 103.5644346 133.2724171 140.8408251
 104.0729851 134.2126350 139.7456481 103.5262930 135.6277717 139.9227523
 104.0388686 136.5451607 138.8248111 103.7495855 126.4811111 143.9250708
 104.0684433 127.2990878 145.1694143 103.5263105 126.6594233 146.4438002
 103.9543195 127.5233543 147.6239314 103.4380424 127.0020436 148.9585243
 103.9259724 127.9158103 150.0822741 103.4365095 127.4370681 151.4394484
 103.9243657 128.3480514 152.5533876 103.7181881 126.2603906 141.4116574
 104.0717005 124.7745280 141.3014780 103.6779989 123.8398091 142.4499994
 102.1699551 123.8551187 142.7049279 101.4954240 123.2052166 141.5144070
  99.9870012 123.2759084 141.5230253  99.5068935 122.5803068 140.2515470
  97.9988128 122.5770083 140.1594067 110.2180000 122.8780000 139.5100000
 110.1410455 122.5073397 139.5176543 110.0585611 122.1754972 141.2575043
 112.4249754 130.1126320 142.8668291 112.5651727 128.7092427 141.8014485
 110.3179720 129.2386836 140.8240912 110.1788237 130.6254455 141.9038742
 110.3242239 129.1158512 143.8822884 110.4894698 127.7137144 142.8159043
 108.3053187 128.2817845 141.7415598 108.1488951 129.6850287 142.7993450
 108.2772658 128.1382563 144.7875970 108.2573866 126.7547500 143.6975358
 106.1477068 128.9879578 143.6815596 106.1246052 127.5903389 144.6938530
 106.1393425 126.0879625 142.6273618 106.1333881 127.5334737 141.6102644
 103.9122357 129.0266140 143.5204736 102.5773203 128.4436983 142.5242458
 103.8430002 129.1317926 140.4794638 105.2567742 129.5405951 141.4569587
 103.9129731 131.2575757 142.6791851 102.5125120 130.8682478 141.6756420
 103.8219548 131.4997877 139.6302164 105.2125354 131.8917619 140.6445471
 103.8700479 133.6411915 141.8145016 102.4677292 133.2477877 140.8252742
 103.7765892 133.8258654 138.7643420 105.1690986 134.2372493 139.7673350
 103.8267766 136.0267647 140.8987785 102.4310217 135.6113078 139.8993739
 105.1319208 136.6084951 138.8453196 103.6360697 137.5538999 138.9533585
 103.7358333 136.1808719 137.8373785 104.2040542 125.4899619 144.0061353
 102.6616585 126.3705741 143.8157896 103.6146181 128.2910562 145.1131876
 105.1498946 127.4297973 145.2652741 103.9117371 125.6370534 146.5570741
 102.4314861 126.5950040 146.3965076 103.5915385 128.5483520 147.4744737
 105.0505863 127.5744758 147.6541921 103.7996746 125.9778177 149.1248960
 102.3449449 126.9701222 148.9488867 103.5711845 128.9392742 149.9036315
 105.0214190 127.9518191 150.0791142 103.7907463 126.4161405 151.6271609
 102.3390940 127.4053802 151.4536289 105.0193060 128.3806532 152.5801465
 103.5709239 127.9872630 153.5242081 103.5547895 129.3694461 152.4135654
 104.1310188 126.6912503 140.4953470 102.6329227 126.4122412 141.3949758
 105.1097693 124.6279571 140.9992213 103.5840396 124.4219919 140.3868611
 104.2430450 124.0327473 143.3648266 103.9807210 122.8171249 142.1814305
 101.7955027 124.8784618 142.8499114 101.9388804 123.3096479 143.6264419
 101.8253368 122.1601193 141.4587989 101.8149557 123.6837440 140.5867341
  99.6622828 124.3260481 141.5253643  99.5834417 122.7969961 142.4177257
  99.8781578 121.5486438 140.2343391  99.9237045 123.0811868 139.3687974
  97.5648941 122.0791213 141.0305216  97.6841444 122.0450585 139.2585859
  97.6171053 123.6013538 140.1113582 112.1490000 119.8110000 134.8990000
 101.7340000 131.7750000 144.1960000 108.0018435 134.2782258 145.1348018
 106.4726208 134.2873423 145.1348476 105.9079748 132.8653454 145.1339514
 104.3797844 132.8719019 145.1333803 103.8082430 131.4720000 145.1330000
 102.4540000 131.4720000 145.1330000 104.4584269 130.4397992 145.1324242
 101.5470000 132.3760000 142.3380000 101.1759627 132.3756082 143.4714083
 101.1729482 131.7596945 145.1354991 108.3710424 133.7438952 146.0182020
 108.3717372 133.7429623 144.2532715 106.1092267 134.8269011 144.2524328
 106.1081634 134.8269044 146.0173625 106.2741151 132.3214740 146.0129224
 106.2740361 132.3229952 144.2527225 104.0125586 133.3903983 144.2411832
 104.0127875 133.3898719 146.0266810 102.0617631 132.3653881 145.1330000
 110.6800000 122.6100000 158.4400000 112.1297774 129.7112005 159.8661438
 110.6206515 129.6257848 159.7792115 110.0609757 128.7226163 160.8702000
 108.5622477 128.6670210 160.7033451 107.9431405 127.8002373 161.7763042
 106.4368159 127.9321808 161.7017451 105.8190844 127.1310000 160.5530000
 104.2730000 127.1310000 160.5530000 103.6656962 128.5577263 160.5530000
 104.1635752 129.4842788 159.4404628 103.6088467 130.8977891 159.6630727
 104.1163630 131.8612987 158.5950697 103.5644346 133.2724171 158.8158251
 104.0729851 134.2126350 157.7206481 103.5262930 135.6277717 157.8977523
 104.0388686 136.5451607 156.7998111 103.7495855 126.4811111 161.9000708
 104.0684433 127.2990878 163.1444143 103.5263105 126.6594233 164.4188002
 103.9543195 127.5233543 165.5989314 103.4380424 127.0020436 166.9335243
 103.9259724 127.9158103 168.0572741 103.4365095 127.4370681 169.4144484
 103.9243657 128.3480514 170.5283876 103.7181881 126.2603906 159.3866574
 104.0717005 124.7745280 159.2764780 103.6779989 123.8398091 160.4249994
 102.1699551 123.8551187 160.6799279 101.4954240 123.2052166 159.4894070
  99.9870012 123.2759084 159.4980253  99.5068935 122.5803068 158.2265470
  97.9988128 122.5770083 158.1344067 110.2180000 122.8780000 157.4850000
 110.1410455 122.5073397 157.4926543 110.0585611 122.1754972 159.2325043
 112.4249754 130.1126320 160.8418291 112.5651727 128.7092427 159.7764485
 110.3179720 129.2386836 158.7990912 110.1788237 130.6254455 159.8788742
 110.3242239 129.1158512 161.8572884 110.4894698 127.7137144 160.7909043
 108.3053187 128.2817845 159.7165598 108.1488951 129.6850287 160.7743450
 108.2772658 128.1382563 162.7625970 108.2573866 126.7547500 161.6725358
 106.1477068 128.9879578 161.6565596 106.1246052 127.5903389 162.6688530
 106.1393425 126.0879625 160.6023618 106.1333881 127.5334737 159.5852644
 103.9122357 129.0266140 161.4954736 102.5773203 128.4436983 160.4992458
 103.8430002 129.1317926 158.4544638 105.2567742 129.5405951 159.4319587
 103.9129731 131.2575757 160.6541851 102.5125120 130.8682478 159.6506420
 103.8219548 131.4997877 157.6052164 105.2125354 131.8917619 158.6195471
 103.8700479 133.6411915 159.7895016 102.4677292 133.2477877 158.8002742
 103.7765892 133.8258654 156.7393420 105.1690986 134.2372493 157.7423350
 103.8267766 136.0267647 158.8737785 102.4310217 135.6113078 157.8743739
 105.1319208 136.6084951 156.8203196 103.6360697 137.5538999 156.9283585
 103.7358333 136.1808719 155.8123785 104.2040542 125.4899619 161.9811353
 102.6616585 126.3705741 161.7907896 103.6146181 128.2910562 163.0881876
 105.1498946 127.4297973 163.2402741 103.9117371 125.6370534 164.5320741
 102.4314861 126.5950040 164.3715076 103.5915385 128.5483520 165.4494737
 105.0505863 127.5744758 165.6291921 103.7996746 125.9778177 167.0998960
 102.3449449 126.9701222 166.9238867 103.5711845 128.9392742 167.8786315
 105.0214190 127.9518191 168.0541142 103.7907463 126.4161405 169.6021609
 102.3390940 127.4053802 169.4286289 105.0193060 128.3806532 170.5551465
 103.5709239 127.9872630 171.4992081 103.5547895 129.3694461 170.3885654
 104.1310188 126.6912503 158.4703470 102.6329227 126.4122412 159.3699758
 105.1097693 124.6279571 158.9742213 103.5840396 124.4219919 158.3618611
 104.2430450 124.0327473 161.3398266 103.9807210 122.8171249 160.1564305
 101.7955027 124.8784618 160.8249114 101.9388804 123.3096479 161.6014419
 101.8253368 122.1601193 159.4337989 101.8149557 123.6837440 158.5617341
  99.6622828 124.3260481 159.5003643  99.5834417 122.7969961 160.3927257
  99.8781578 121.5486438 158.2093391  99.9237045 123.0811868 157.3437974
  97.5648941 122.0791213 159.0055216  97.6841444 122.0450585 157.2335859
  97.6171053 123.6013538 158.0863582 112.1490000 119.8110000 152.8740000
 101.7340000 131.7750000 162.1710000 108.0018435 134.2782258 163.1098018
 106.4726208 134.2873423 163.1098476 105.9079748 132.8653454 163.1089514
 104.3797844 132.8719019 163.1083803 103.8082430 131.4720000 163.1080000
 102.4540000 131.4720000 163.1080000 104.4584269 130.4397992 163.1074242
 101.5470000 132.3760000 160.3130000 101.1759627 132.3756082 161.4464083
 101.1729482 131.7596945 163.1104991 108.3710424 133.7438952 163.9932020
 108.3717372 133.7429623 162.2282715 106.1092267 134.8269011 162.2274328
 106.1081634 134.8269044 163.9923625 106.2741151 132.3214740 163.9879224
 106.2740361 132.3229952 162.2277225 104.0125586 133.3903983 162.2161832
 104.0127875 133.3898719 164.0016810 102.0617631 132.3653881 163.1080000
 110.6800000 122.6100000 176.4150000 112.1297774 129.7112005 177.8411438
 110.6206515 129.6257848 177.7542115 110.0609757 128.7226163 178.8452000
 108.5622477 128.6670210 178.6783451 107.9431405 127.8002373 179.7513042
 106.4368159 127.9321808 179.6767451 105.8190844 127.1310000 178.5280000
 104.2730000 127.1310000 178.5280000 103.6656962 128.5577263 178.5280000
 104.1635752 129.4842788 177.4154628 103.6088467 130.8977891 177.6380727
 104.1163630 131.8612987 176.5700697 103.5644346 133.2724171 176.7908251
 104.0729851 134.2126350 175.6956481 103.5262930 135.6277717 175.8727523
 104.0388686 136.5451607 174.7748111 103.7495855 126.4811111 179.8750708
 104.0684433 127.2990878 181.1194143 103.5263105 126.6594233 182.3938002
 103.9543195 127.5233543 183.5739314 103.4380424 127.0020436 184.9085243
 103.9259724 127.9158103 186.0322741 103.4365095 127.4370681 187.3894484
 103.9243657 128.3480514 188.5033876 103.7181881 126.2603906 177.3616574
 104.0717005 124.7745280 177.2514780 103.6779989 123.8398091 178.3999994
 102.1699551 123.8551187 178.6549279 101.4954240 123.2052166 177.4644070
  99.9870012 123.2759084 177.4730253  99.5068935 122.5803068 176.2015470
  97.9988128 122.5770083 176.1094067 110.2180000 122.8780000 175.4600000
 110.1410455 122.5073397 175.4676543 110.0585611 122.1754972 177.2075043
 112.4249754 130.1126320 178.8168291 112.5651727 128.7092427 177.7514485
 110.3179720 129.2386836 176.7740912 110.1788237 130.6254455 177.8538742
 110.3242239 129.1158512 179.8322884 110.4894698 127.7137144 178.7659043
 108.3053187 128.2817845 177.6915598 108.1488951 129.6850287 178.7493450
 108.2772658 128.1382563 180.7375970 108.2573866 126.7547500 179.6475358
 106.1477068 128.9879578 179.6315596 106.1246052 127.5903389 180.6438530
 106.1393425 126.0879625 178.5773618 106.1333881 127.5334737 177.5602644
 103.9122357 129.0266140 179.4704736 102.5773203 128.4436983 178.4742458
 103.8430002 129.1317926 176.4294638 105.2567742 129.5405951 177.4069587
 103.9129731 131.2575757 178.6291851 102.5125120 130.8682478 177.6256420
 103.8219548 131.4997877 175.5802164 105.2125354 131.8917619 176.5945471
 103.8700479 133.6411915 177.7645016 102.4677292 133.2477877 176.7752742
 103.7765892 133.8258654 174.7143420 105.1690986 134.2372493 175.7173350
 103.8267766 136.0267647 176.8487785 102.4310217 135.6113078 175.8493739
 105.1319208 136.6084951 174.7953196 103.6360697 137.5538999 174.9033585
 103.7358333 136.1808719 173.7873785 104.2040542 125.4899619 179.9561353
 102.6616585 126.3705741 179.7657896 103.6146181 128.2910562 181.0631876
 105.1498946 127.4297973 181.2152741 103.9117371 125.6370534 182.5070741
 102.4314861 126.5950040 182.3465076 103.5915385 128.5483520 183.4244737
 105.0505863 127.5744758 183.6041921 103.7996746 125.9778177 185.0748960
 102.3449449 126.9701222 184.8988867 103.5711845 128.9392742 185.8536315
 105.0214190 127.9518191 186.0291142 103.7907463 126.4161405 187.5771609
 102.3390940 127.4053802 187.4036289 105.0193060 128.3806532 188.5301465
 103.5709239 127.9872630 189.4742081 103.5547895 129.3694461 188.3635654
 104.1310188 126.6912503 176.4453470 102.6329227 126.4122412 177.3449758
 105.1097693 124.6279571 176.9492213 103.5840396 124.4219919 176.3368611
 104.2430450 124.0327473 179.3148266 103.9807210 122.8171249 178.1314305
 101.7955027 124.8784618 178.7999114 101.9388804 123.3096479 179.5764419
 101.8253368 122.1601193 177.4087989 101.8149557 123.6837440 176.5367341
  99.6622828 124.3260481 177.4753643  99.5834417 122.7969961 178.3677257
  99.8781578 121.5486438 176.1843391  99.9237045 123.0811868 175.3187974
  97.5648941 122.0791213 176.9805216  97.6841444 122.0450585 175.2085859
  97.6171053 123.6013538 176.0613582 112.1490000 119.8110000 170.8490000
 101.7340000 131.7750000 180.1460000 108.0018435 134.2782258 181.0848018
 106.4726208 134.2873423 181.0848476 105.9079748 132.8653454 181.0839514
 104.3797844 132.8719019 181.0833803 103.8082430 131.4720000 181.0830000
 102.4540000 131.4720000 181.0830000 104.4584269 130.4397992 181.0824242
 101.5470000 132.3760000 178.2880000 101.1759627 132.3756082 179.4214083
 101.1729482 131.7596945 181.0854991 108.3710424 133.7438952 181.9682020
 108.3717372 133.7429623 180.2032715 106.1092267 134.8269011 180.2024328
 106.1081634 134.8269044 181.9673625 106.2741151 132.3214740 181.9629224
 106.2740361 132.3229952 180.2027225 104.0125586 133.3903983 180.1911832
 104.0127875 133.3898719 181.9766810 102.0617631 132.3653881 181.0830000
 110.6800000 141.2130000  68.5660000 112.1297774 148.3142005  69.9921438
 110.6206515 148.2287848  69.9052115 110.0609757 147.3256163  70.9962000
 108.5622477 147.2700210  70.8293451 107.9431405 146.4032373  71.9023042
 106.4368159 146.5351808  71.8277451 105.8190844 145.7340000  70.6790000
 104.2730000 145.7340000  70.6790000 103.6656962 147.1607263  70.6790000
 104.1635752 148.0872788  69.5664628 103.6088467 149.5007891  69.7890727
 104.1163630 150.4642987  68.7210697 103.5644346 151.8754171  68.9418251
 104.0729851 152.8156350  67.8466481 103.5262930 154.2307717  68.0237523
 104.0388686 155.1481607  66.9258111 103.7495855 145.0841111  72.0260708
 104.0684433 145.9020878  73.2704143 103.5263105 145.2624233  74.5448002
 103.9543195 146.1263543  75.7249314 103.4380424 145.6050436  77.0595243
 103.9259724 146.5188103  78.1832741 103.4365095 146.0400681  79.5404484
 103.9243657 146.9510514  80.6543876 103.7181881 144.8633906  69.5126574
 104.0717005 143.3775280  69.4024780 103.6779989 142.4428091  70.5509994
 102.1699551 142.4581187  70.8059279 101.4954240 141.8082166  69.6154070
  99.9870012 141.8789084  69.6240253  99.5068935 141.1833068  68.3525470
  97.9988128 141.1800083  68.2604067 110.2180000 141.4810000  67.6110000
 110.1410455 141.1103397  67.6186543 110.0585611 140.7784972  69.3585043
 112.4249754 148.7156320  70.9678291 112.5651727 147.3122427  69.9024485
 110.3179720 147.8416836  68.9250912 110.1788237 149.2284455  70.0048742
 110.3242239 147.7188512  71.9832884 110.4894698 146.3167144  70.9169043
 108.3053187 146.8847845  69.8425598 108.1488951 148.2880287  70.9003450
 108.2772658 146.7412563  72.8885970 108.2573866 145.3577500  71.7985358
 106.1477068 147.5909578  71.7825596 106.1246052 146.1933389  72.7948530
 106.1393425 144.6909625  70.7283618 106.1333881 146.1364737  69.7112644
 103.9122357 147.6296140  71.6214736 102.5773203 147.0466983  70.6252458
 103.8430002 147.7347926  68.5804638 105.2567742 148.1435951  69.5579587
 103.9129731 149.8605757  70.7801851 102.5125120 149.4712478  69.7766420
 103.8219548 150.1027877  67.7312164 105.2125354 150.4947619  68.7455471
 103.8700479 152.2441915  69.9155016 102.4677292 151.8507877  68.9262742
 103.7765892 152.4288654  66.8653420 105.1690986 152.8402493  67.8683350
 103.8267766 154.6297647  68.9997785 102.4310217 154.2143078  68.0003739
 105.1319208 155.2114951  66.9463196 103.6360697 156.1568999  67.0543585
 103.7358333 154.7838719  65.9383785 104.2040542 144.0929619  72.1071353
 102.6616585 144.9735741  71.9167896 103.6146181 146.8940562  73.2141876
 105.1498946 146.0327973  73.3662741 103.9117371 144.2400534  74.6580741
 102.4314861 145.1980040  74.4975076 103.5915385 147.1513520  75.5754737
 105.0505863 146.1774758  75.7551921 103.7996746 144.5808177  77.2258960
 102.3449449 145.5731222  77.0498867 103.5711845 147.5422742  78.0046315
 105.0214190 146.5548191  78.1801142 103.7907463 145.0191405  79.7281609
 102.3390940 146.0083802  79.5546289 105.0193060 146.9836532  80.6811465
 103.5709239 146.5902630  81.6252081 103.5547895 147.9724461  80.5145654
 104.1310188 145.2942503  68.5963470 102.6329227 145.0152412  69.4959758
 105.1097693 143.2309571  69.1002213 103.5840396 143.0249919  68.4878611
 104.2430450 142.6357473  71.4658266 103.9807210 141.4201249  70.2824305
 101.7955027 143.4814618  70.9509114 101.9388804 141.9126479  71.7274419
 101.8253368 140.7631193  69.5597989 101.8149557 142.2867440  68.6877341
  99.6622828 142.9290481  69.6263643  99.5834417 141.3999961  70.5187257
  99.8781578 140.1516438  68.3353391  99.9237045 141.6841868  67.4697974
  97.5648941 140.6821213  69.1315216  97.6841444 140.6480585  67.3595859
  97.6171053 142.2043538  68.2123582 112.1490000 138.4140000  63.0000000
 101.7340000 150.3780000  72.2970000 108.0018435 152.8812258  73.2358018
 106.4726208 152.8903423  73.2358476 105.9079748 151.4683454  73.2349514
 104.3797844 151.4749019  73.2343803 103.8082430 150.0750000  73.2340000
 102.4540000 150.0750000  73.2340000 104.4584269 149.0427992  73.2334242
 101.5470000 150.9790000  70.4390000 101.1759627 150.9786082  71.5724083
 101.1729482 150.3626945  73.2364991 108.3710424 152.3468952  74.1192020
 108.3717372 152.3459623  72.3542715 106.1092267 153.4299011  72.3534328
 106.1081634 153.4299044  74.1183625 106.2741151 150.9244740  74.1139224
 106.2740361 150.9259952  72.3537225 104.0125586 151.9933983  72.3421832
 104.0127875 151.9928719  74.1276810 102.0617631 150.9683881  73.2340000
 110.6800000 141.2130000  86.5410000 112.1297774 148.3142005  87.9671438
 110.6206515 148.2287848  87.8802115 110.0609757 147.3256163  88.9712000
 108.5622477 147.2700210  88.8043451 107.9431405 146.4032373  89.8773042
 106.4368159 146.5351808  89.8027451 105.8190844 145.7340000  88.6540000
 104.2730000 145.7340000  88.6540000 103.6656962 147.1607263  88.6540000
 104.1635752 148.0872788  87.5414628 103.6088467 149.5007891  87.7640727
 104.1163630 150.4642987  86.6960697 103.5644346 151.8754171  86.9168251
 104.0729851 152.8156350  85.8216481 103.5262930 154.2307717  85.9987523
 104.0388686 155.1481607  84.9008111 103.7495855 145.0841111  90.0010708
 104.0684433 145.9020878  91.2454143 103.5263105 145.2624233  92.5198002
 103.9543195 146.1263543  93.6999314 103.4380424 145.6050436  95.0345243
 103.9259724 146.5188103  96.1582741 103.4365095 146.0400681  97.5154484
 103.9243657 146.9510514  98.6293876 103.7181881 144.8633906  87.4876574
 104.0717005 143.3775280  87.3774780 103.6779989 142.4428091  88.5259994
 102.1699551 142.4581187  88.7809279 101.4954240 141.8082166  87.5904070
  99.9870012 141.8789084  87.5990253  99.5068935 141.1833068  86.3275470
  97.9988128 141.1800083  86.2354067 110.2180000 141.4810000  85.5860000
 110.1410455 141.1103397  85.5936543 110.0585611 140.7784972  87.3335043
 112.4249754 148.7156320  88.9428291 112.5651727 147.3122427  87.8774485
 110.3179720 147.8416836  86.9000912 110.1788237 149.2284455  87.9798742
 110.3242239 147.7188512  89.9582884 110.4894698 146.3167144  88.8919043
 108.3053187 146.8847845  87.8175598 108.1488951 148.2880287  88.8753450
 108.2772658 146.7412563  90.8635970 108.2573866 145.3577500  89.7735358
 106.1477068 147.5909578  89.7575596 106.1246052 146.1933389  90.7698530
 106.1393425 144.6909625  88.7033618 106.1333881 146.1364737  87.6862644
 103.9122357 147.6296140  89.5964736 102.5773203 147.0466983  88.6002458
 103.8430002 147.7347926  86.5554638 105.2567742 148.1435951  87.5329587
 103.9129731 149.8605757  88.7551851 102.5125120 149.4712478  87.7516420
 103.8219548 150.1027877  85.7062164 105.2125354 150.4947619  86.7205471
 103.8700479 152.2441915  87.8905016 102.4677292 151.8507877  86.9012742
 103.7765892 152.4288654  84.8403420 105.1690986 152.8402493  85.8433350
 103.8267766 154.6297647  86.9747785 102.4310217 154.2143078  85.9753739
 105.1319208 155.2114951  84.9213196 103.6360697 156.1568999  85.0293585
 103.7358333 154.7838719  83.9133785 104.2040542 144.0929619  90.0821353
 102.6616585 144.9735741  89.8917896 103.6146181 146.8940562  91.1891876
 105.1498946 146.0327973  91.3412741 103.9117371 144.2400534  92.6330741
 102.4314861 145.1980040  92.4725076 103.5915385 147.1513520  93.5504737
 105.0505863 146.1774758  93.7301921 103.7996746 144.5808177  95.2008960
 102.3449449 145.5731222  95.0248867 103.5711845 147.5422742  95.9796315
 105.0214190 146.5548191  96.1551142 103.7907463 145.0191405  97.7031609
 102.3390940 146.0083802  97.5296289 105.0193060 146.9836532  98.6561465
 103.5709239 146.5902630  99.6002081 103.5547895 147.9724461  98.4895654
 104.1310188 145.2942503  86.5713470 102.6329227 145.0152412  87.4709758
 105.1097693 143.2309571  87.0752213 103.5840396 143.0249919  86.4628611
 104.2430450 142.6357473  89.4408266 103.9807210 141.4201249  88.2574305
 101.7955027 143.4814618  88.9259114 101.9388804 141.9126479  89.7024419
 101.8253368 140.7631193  87.5347989 101.8149557 142.2867440  86.6627341
  99.6622828 142.9290481  87.6013643  99.5834417 141.3999961  88.4937257
  99.8781578 140.1516438  86.3103391  99.9237045 141.6841868  85.4447974
  97.5648941 140.6821213  87.1065216  97.6841444 140.6480585  85.3345859
  97.6171053 142.2043538  86.1873582 112.1490000 138.4140000  80.9750000
 101.7340000 150.3780000  90.2720000 108.0018435 152.8812258  91.2108018
 106.4726208 152.8903423  91.2108476 105.9079748 151.4683454  91.2099514
 104.3797844 151.4749019  91.2093803 103.8082430 150.0750000  91.2090000
 102.4540000 150.0750000  91.2090000 104.4584269 149.0427992  91.2084242
 101.5470000 150.9790000  88.4140000 101.1759627 150.9786082  89.5474083
 101.1729482 150.3626945  91.2114991 108.3710424 152.3468952  92.0942020
 108.3717372 152.3459623  90.3292715 106.1092267 153.4299011  90.3284328
 106.1081634 153.4299044  92.0933625 106.2741151 150.9244740  92.0889224
 106.2740361 150.9259952  90.3287225 104.0125586 151.9933983  90.3171832
 104.0127875 151.9928719  92.1026810 102.0617631 150.9683881  91.2090000
 110.6800000 141.2130000 104.5160000 112.1297774 148.3142005 105.9421438
 110.6206515 148.2287848 105.8552115 110.0609757 147.3256163 106.9462000
 108.5622477 147.2700210 106.7793451 107.9431405 146.4032373 107.8523042
 106.4368159 146.5351808 107.7777451 105.8190844 145.7340000 106.6290000
 104.2730000 145.7340000 106.6290000 103.6656962 147.1607263 106.6290000
 104.1635752 148.0872788 105.5164628 103.6088467 149.5007891 105.7390727
 104.1163630 150.4642987 104.6710697 103.5644346 151.8754171 104.8918251
 104.0729851 152.8156350 103.7966481 103.5262930 154.2307717 103.9737523
 104.0388686 155.1481607 102.8758111 103.7495855 145.0841111 107.9760708
 104.0684433 145.9020878 109.2204143 103.5263105 145.2624233 110.4948002
 103.9543195 146.1263543 111.6749314 103.4380424 145.6050436 113.0095243
 103.9259724 146.5188103 114.1332741 103.4365095 146.0400681 115.4904484
 103.9243657 146.9510514 116.6043876 103.7181881 144.8633906 105.4626574
 104.0717005 143.3775280 105.3524780 103.6779989 142.4428091 106.5009994
 102.1699551 142.4581187 106.7559279 101.4954240 141.8082166 105.5654070
  99.9870012 141.8789084 105.5740253  99.5068935 141.1833068 104.3025470
  97.9988128 141.1800083 104.2104067 110.2180000 141.4810000 103.5610000
 110.1410455 141.1103397 103.5686543 110.0585611 140.7784972 105.3085043
 112.4249754 148.7156320 106.9178291 112.5651727 147.3122427 105.8524485
 110.3179720 147.8416836 104.8750912 110.1788237 149.2284455 105.9548742
 110.3242239 147.7188512 107.9332884 110.4894698 146.3167144 106.8669043
 108.3053187 146.8847845 105.7925598 108.1488951 148.2880287 106.8503450
 108.2772658 146.7412563 108.8385970 108.2573866 145.3577500 107.7485358
 106.1477068 147.5909578 107.7325596 106.1246052 146.1933389 108.7448530
 106.1393425 144.6909625 106.6783618 106.1333881 146.1364737 105.6612644
 103.9122357 147.6296140 107.5714736 102.5773203 147.0466983 106.5752458
 103.8430002 147.7347926 104.5304638 105.2567742 148.1435951 105.5079587
 103.9129731 149.8605757 106.7301851 102.5125120 149.4712478 105.7266420
 103.8219548 150.1027877 103.6812164 105.2125354 150.4947619 104.6955471
 103.8700479 152.2441915 105.8655016 102.4677292 151.8507877 104.8762742
 103.7765892 152.4288654 102.8153420 105.1690986 152.8402493 103.8183350
 103.8267766 154.6297647 104.9497785 102.4310217 154.2143078 103.9503739
 105.1319208 155.2114951 102.8963196 103.6360697 156.1568999 103.0043585
 103.7358333 154.7838719 101.8883785 104.2040542 144.0929619 108.0571353
 102.6616585 144.9735741 107.8667896 103.6146181 146.8940562 109.1641876
 105.1498946 146.0327973 109.3162741 103.9117371 144.2400534 110.6080741
 102.4314861 145.1980040 110.4475076 103.5915385 147.1513520 111.5254737
 105.0505863 146.1774758 111.7051921 103.7996746 144.5808177 113.1758960
 102.3449449 145.5731222 112.9998867 103.5711845 147.5422742 113.9546315
 105.0214190 146.5548191 114.1301142 103.7907463 145.0191405 115.6781609
 102.3390940 146.0083802 115.5046289 105.0193060 146.9836532 116.6311465
 103.5709239 146.5902630 117.5752081 103.5547895 147.9724461 116.4645654
 104.1310188 145.2942503 104.5463470 102.6329227 145.0152412 105.4459758
 105.1097693 143.2309571 105.0502213 103.5840396 143.0249919 104.4378611
 104.2430450 142.6357473 107.4158266 103.9807210 141.4201249 106.2324305
 101.7955027 143.4814618 106.9009114 101.9388804 141.9126479 107.6774419
 101.8253368 140.7631193 105.5097989 101.8149557 142.2867440 104.6377341
  99.6622828 142.9290481 105.5763643  99.5834417 141.3999961 106.4687257
  99.8781578 140.1516438 104.2853391  99.9237045 141.6841868 103.4197974
  97.5648941 140.6821213 105.0815216  97.6841444 140.6480585 103.3095859
  97.6171053 142.2043538 104.1623582 112.1490000 138.4140000  98.9500000
 101.7340000 150.3780000 108.2470000 108.0018435 152.8812258 109.1858018
 106.4726208 152.8903423 109.1858476 105.9079748 151.4683454 109.1849514
 104.3797844 151.4749019 109.1843803 103.8082430 150.0750000 109.1840000
 102.4540000 150.0750000 109.1840000 104.4584269 149.0427992 109.1834242
 101.5470000 150.9790000 106.3890000 101.1759627 150.9786082 107.5224083
 101.1729482 150.3626945 109.1864991 108.3710424 152.3468952 110.0692020
 108.3717372 152.3459623 108.3042715 106.1092267 153.4299011 108.3034328
 106.1081634 153.4299044 110.0683625 106.2741151 150.9244740 110.0639224
 106.2740361 150.9259952 108.3037225 104.0125586 151.9933983 108.2921832
 104.0127875 151.9928719 110.0776810 102.0617631 150.9683881 109.1840000
 110.6800000 141.2130000 122.4900000 112.1297774 148.3142005 123.9161438
 110.6206515 148.2287848 123.8292115 110.0609757 147.3256163 124.9202000
 108.5622477 147.2700210 124.7533451 107.9431405 146.4032373 125.8263042
 106.4368159 146.5351808 125.7517451 105.8190844 145.7340000 124.6030000
 104.2730000 145.7340000 124.6030000 103.6656962 147.1607263 124.6030000
 104.1635752 148.0872788 123.4904628 103.6088467 149.5007891 123.7130727
 104.1163630 150.4642987 122.6450697 103.5644346 151.8754171 122.8658251
 104.0729851 152.8156350 121.7706481 103.5262930 154.2307717 121.9477523
 104.0388686 155.1481607 120.8498111 103.7495855 145.0841111 125.9500708
 104.0684433 145.9020878 127.1944143 103.5263105 145.2624233 128.4688002
 103.9543195 146.1263543 129.6489314 103.4380424 145.6050436 130.9835243
 103.9259724 146.5188103 132.1072741 103.4365095 146.0400681 133.4644484
 103.9243657 146.9510514 134.5783876 103.7181881 144.8633906 123.4366574
 104.0717005 143.3775280 123.3264780 103.6779989 142.4428091 124.4749994
 102.1699551 142.4581187 124.7299279 101.4954240 141.8082166 123.5394070
  99.9870012 141.8789084 123.5480253  99.5068935 141.1833068 122.2765470
  97.9988128 141.1800083 122.1844067 110.2180000 141.4810000 121.5350000
 110.1410455 141.1103397 121.5426543 110.0585611 140.7784972 123.2825043
 112.4249754 148.7156320 124.8918291 112.5651727 147.3122427 123.8264485
 110.3179720 147.8416836 122.8490912 110.1788237 149.2284455 123.9288742
 110.3242239 147.7188512 125.9072884 110.4894698 146.3167144 124.8409043
 108.3053187 146.8847845 123.7665598 108.1488951 148.2880287 124.8243450
 108.2772658 146.7412563 126.8125970 108.2573866 145.3577500 125.7225358
 106.1477068 147.5909578 125.7065596 106.1246052 146.1933389 126.7188530
 106.1393425 144.6909625 124.6523618 106.1333881 146.1364737 123.6352644
 103.9122357 147.6296140 125.5454736 102.5773203 147.0466983 124.5492458
 103.8430002 147.7347926 122.5044638 105.2567742 148.1435951 123.4819587
 103.9129731 149.8605757 124.7041851 102.5125120 149.4712478 123.7006420
 103.8219548 150.1027877 121.6552164 105.2125354 150.4947619 122.6695471
 103.8700479 152.2441915 123.8395016 102.4677292 151.8507877 122.8502742
 103.7765892 152.4288654 120.7893420 105.1690986 152.8402493 121.7923350
 103.8267766 154.6297647 122.9237785 102.4310217 154.2143078 121.9243739
 105.1319208 155.2114951 120.8703196 103.6360697 156.1568999 120.9783585
 103.7358333 154.7838719 119.8623785 104.2040542 144.0929619 126.0311353
 102.6616585 144.9735741 125.8407896 103.6146181 146.8940562 127.1381876
 105.1498946 146.0327973 127.2902741 103.9117371 144.2400534 128.5820741
 102.4314861 145.1980040 128.4215076 103.5915385 147.1513520 129.4994737
 105.0505863 146.1774758 129.6791921 103.7996746 144.5808177 131.1498960
 102.3449449 145.5731222 130.9738867 103.5711845 147.5422742 131.9286315
 105.0214190 146.5548191 132.1041142 103.7907463 145.0191405 133.6521609
 102.3390940 146.0083802 133.4786289 105.0193060 146.9836532 134.6051465
 103.5709239 146.5902630 135.5492081 103.5547895 147.9724461 134.4385654
 104.1310188 145.2942503 122.5203470 102.6329227 145.0152412 123.4199758
 105.1097693 143.2309571 123.0242213 103.5840396 143.0249919 122.4118611
 104.2430450 142.6357473 125.3898266 103.9807210 141.4201249 124.2064305
 101.7955027 143.4814618 124.8749114 101.9388804 141.9126479 125.6514419
 101.8253368 140.7631193 123.4837989 101.8149557 142.2867440 122.6117341
  99.6622828 142.9290481 123.5503643  99.5834417 141.3999961 124.4427257
  99.8781578 140.1516438 122.2593391  99.9237045 141.6841868 121.3937974
  97.5648941 140.6821213 123.0555216  97.6841444 140.6480585 121.2835859
  97.6171053 142.2043538 122.1363582 112.1490000 138.4140000 116.9240000
 101.7340000 150.3780000 126.2210000 108.0018435 152.8812258 127.1598018
 106.4726208 152.8903423 127.1598476 105.9079748 151.4683454 127.1589514
 104.3797844 151.4749019 127.1583803 103.8082430 150.0750000 127.1580000
 102.4540000 150.0750000 127.1580000 104.4584269 149.0427992 127.1574242
 101.5470000 150.9790000 124.3630000 101.1759627 150.9786082 125.4964083
 101.1729482 150.3626945 127.1604991 108.3710424 152.3468952 128.0432020
 108.3717372 152.3459623 126.2782715 106.1092267 153.4299011 126.2774328
 106.1081634 153.4299044 128.0423625 106.2741151 150.9244740 128.0379224
 106.2740361 150.9259952 126.2777225 104.0125586 151.9933983 126.2661832
 104.0127875 151.9928719 128.0516810 102.0617631 150.9683881 127.1580000
 110.6800000 141.2130000 140.4650000 112.1297774 148.3142005 141.8911438
 110.6206515 148.2287848 141.8042115 110.0609757 147.3256163 142.8952000
 108.5622477 147.2700210 142.7283451 107.9431405 146.4032373 143.8013042
 106.4368159 146.5351808 143.7267451 105.8190844 145.7340000 142.5780000
 104.2730000 145.7340000 142.5780000 103.6656962 147.1607263 142.5780000
 104.1635752 148.0872788 141.4654628 103.6088467 149.5007891 141.6880727
 104.1163630 150.4642987 140.6200697 103.5644346 151.8754171 140.8408251
 104.0729851 152.8156350 139.7456481 103.5262930 154.2307717 139.9227523
 104.0388686 155.1481607 138.8248111 103.7495855 145.0841111 143.9250708
 104.0684433 145.9020878 145.1694143 103.5263105 145.2624233 146.4438002
 103.9543195 146.1263543 147.6239314 103.4380424 145.6050436 148.9585243
 103.9259724 146.5188103 150.0822741 103.4365095 146.0400681 151.4394484
 103.9243657 146.9510514 152.5533876 103.7181881 144.8633906 141.4116574
 104.0717005 143.3775280 141.3014780 103.6779989 142.4428091 142.4499994
 102.1699551 142.4581187 142.7049279 101.4954240 141.8082166 141.5144070
  99.9870012 141.8789084 141.5230253  99.5068935 141.1833068 140.2515470
  97.9988128 141.1800083 140.1594067 110.2180000 141.4810000 139.5100000
 110.1410455 141.1103397 139.5176543 110.0585611 140.7784972 141.2575043
 112.4249754 148.7156320 142.8668291 112.5651727 147.3122427 141.8014485
 110.3179720 147.8416836 140.8240912 110.1788237 149.2284455 141.9038742
 110.3242239 147.7188512 143.8822884 110.4894698 146.3167144 142.8159043
 108.3053187 146.8847845 141.7415598 108.1488951 148.2880287 142.7993450
 108.2772658 146.7412563 144.7875970 108.2573866 145.3577500 143.6975358
 106.1477068 147.5909578 143.6815596 106.1246052 146.1933389 144.6938530
 106.1393425 144.6909625 142.6273618 106.1333881 146.1364737 141.6102644
 103.9122357 147.6296140 143.5204736 102.5773203 147.0466983 142.5242458
 103.8430002 147.7347926 140.4794638 105.2567742 148.1435951 141.4569587
 103.9129731 149.8605757 142.6791851 102.5125120 149.4712478 141.6756420
 103.8219548 150.1027877 139.6302164 105.2125354 150.4947619 140.6445471
 103.8700479 152.2441915 141.8145016 102.4677292 151.8507877 140.8252742
 103.7765892 152.4288654 138.7643420 105.1690986 152.8402493 139.7673350
 103.8267766 154.6297647 140.8987785 102.4310217 154.2143078 139.8993739
 105.1319208 155.2114951 138.8453196 103.6360697 156.1568999 138.9533585
 103.7358333 154.7838719 137.8373785 104.2040542 144.0929619 144.0061353
 102.6616585 144.9735741 143.8157896 103.6146181 146.8940562 145.1131876
 105.1498946 146.0327973 145.2652741 103.9117371 144.2400534 146.5570741
 102.4314861 145.1980040 146.3965076 103.5915385 147.1513520 147.4744737
 105.0505863 146.1774758 147.6541921 103.7996746 144.5808177 149.1248960
 102.3449449 145.5731222 148.9488867 103.5711845 147.5422742 149.9036315
 105.0214190 146.5548191 150.0791142 103.7907463 145.0191405 151.6271609
 102.3390940 146.0083802 151.4536289 105.0193060 146.9836532 152.5801465
 103.5709239 146.5902630 153.5242081 103.5547895 147.9724461 152.4135654
 104.1310188 145.2942503 140.4953470 102.6329227 145.0152412 141.3949758
 105.1097693 143.2309571 140.9992213 103.5840396 143.0249919 140.3868611
 104.2430450 142.6357473 143.3648266 103.9807210 141.4201249 142.1814305
 101.7955027 143.4814618 142.8499114 101.9388804 141.9126479 143.6264419
 101.8253368 140.7631193 141.4587989 101.8149557 142.2867440 140.5867341
  99.6622828 142.9290481 141.5253643  99.5834417 141.3999961 142.4177257
  99.8781578 140.1516438 140.2343391  99.9237045 141.6841868 139.3687974
  97.5648941 140.6821213 141.0305216  97.6841444 140.6480585 139.2585859
  97.6171053 142.2043538 140.1113582 112.1490000 138.4140000 134.8990000
 101.7340000 150.3780000 144.1960000 108.0018435 152.8812258 145.1348018
 106.4726208 152.8903423 145.1348476 105.9079748 151.4683454 145.1339514
 104.3797844 151.4749019 145.1333803 103.8082430 150.0750000 145.1330000
 102.4540000 150.0750000 145.1330000 104.4584269 149.0427992 145.1324242
 101.5470000 150.9790000 142.3380000 101.1759627 150.9786082 143.4714083
 101.1729482 150.3626945 145.1354991 108.3710424 152.3468952 146.0182020
 108.3717372 152.3459623 144.2532715 106.1092267 153.4299011 144.2524328
 106.1081634 153.4299044 146.0173625 106.2741151 150.9244740 146.0129224
 106.2740361 150.9259952 144.2527225 104.0125586 151.9933983 144.2411832
 104.0127875 151.9928719 146.0266810 102.0617631 150.9683881 145.1330000
 110.6800000 141.2130000 158.4400000 112.1297774 148.3142005 159.8661438
 110.6206515 148.2287848 159.7792115 110.0609757 147.3256163 160.8702000
 108.5622477 147.2700210 160.7033451 107.9431405 146.4032373 161.7763042
 106.4368159 146.5351808 161.7017451 105.8190844 145.7340000 160.5530000
 104.2730000 145.7340000 160.5530000 103.6656962 147.1607263 160.5530000
 104.1635752 148.0872788 159.4404628 103.6088467 149.5007891 159.6630727
 104.1163630 150.4642987 158.5950697 103.5644346 151.8754171 158.8158251
 104.0729851 152.8156350 157.7206481 103.5262930 154.2307717 157.8977523
 104.0388686 155.1481607 156.7998111 103.7495855 145.0841111 161.9000708
 104.0684433 145.9020878 163.1444143 103.5263105 145.2624233 164.4188002
 103.9543195 146.1263543 165.5989314 103.4380424 145.6050436 166.9335243
 103.9259724 146.5188103 168.0572741 103.4365095 146.0400681 169.4144484
 103.9243657 146.9510514 170.5283876 103.7181881 144.8633906 159.3866574
 104.0717005 143.3775280 159.2764780 103.6779989 142.4428091 160.4249994
 102.1699551 142.4581187 160.6799279 101.4954240 141.8082166 159.4894070
  99.9870012 141.8789084 159.4980253  99.5068935 141.1833068 158.2265470
  97.9988128 141.1800083 158.1344067 110.2180000 141.4810000 157.4850000
 110.1410455 141.1103397 157.4926543 110.0585611 140.7784972 159.2325043
 112.4249754 148.7156320 160.8418291 112.5651727 147.3122427 159.7764485
 110.3179720 147.8416836 158.7990912 110.1788237 149.2284455 159.8788742
 110.3242239 147.7188512 161.8572884 110.4894698 146.3167144 160.7909043
 108.3053187 146.8847845 159.7165598 108.1488951 148.2880287 160.7743450
 108.2772658 146.7412563 162.7625970 108.2573866 145.3577500 161.6725358
 106.1477068 147.5909578 161.6565596 106.1246052 146.1933389 162.6688530
 106.1393425 144.6909625 160.6023618 106.1333881 146.1364737 159.5852644
 103.9122357 147.6296140 161.4954736 102.5773203 147.0466983 160.4992458
 103.8430002 147.7347926 158.4544638 105.2567742 148.1435951 159.4319587
 103.9129731 149.8605757 160.6541851 102.5125120 149.4712478 159.6506420
 103.8219548 150.1027877 157.6052164 105.2125354 150.4947619 158.6195471
 103.8700479 152.2441915 159.7895016 102.4677292 151.8507877 158.8002742
 103.7765892 152.4288654 156.7393420 105.1690986 152.8402493 157.7423350
 103.8267766 154.6297647 158.8737785 102.4310217 154.2143078 157.8743739
 105.1319208 155.2114951 156.8203196 103.6360697 156.1568999 156.9283585
 103.7358333 154.7838719 155.8123785 104.2040542 144.0929619 161.9811353
 102.6616585 144.9735741 161.7907896 103.6146181 146.8940562 163.0881876
 105.1498946 146.0327973 163.2402741 103.9117371 144.2400534 164.5320741
 102.4314861 145.1980040 164.3715076 103.5915385 147.1513520 165.4494737
 105.0505863 146.1774758 165.6291921 103.7996746 144.5808177 167.0998960
 102.3449449 145.5731222 166.9238867 103.5711845 147.5422742 167.8786315
 105.0214190 146.5548191 168.0541142 103.7907463 145.0191405 169.6021609
 102.3390940 146.0083802 169.4286289 105.0193060 146.9836532 170.5551465
 103.5709239 146.5902630 171.4992081 103.5547895 147.9724461 170.3885654
 104.1310188 145.2942503 158.4703470 102.6329227 145.0152412 159.3699758
 105.1097693 143.2309571 158.9742213 103.5840396 143.0249919 158.3618611
 104.2430450 142.6357473 161.3398266 103.9807210 141.4201249 160.1564305
 101.7955027 143.4814618 160.8249114 101.9388804 141.9126479 161.6014419
 101.8253368 140.7631193 159.4337989 101.8149557 142.2867440 158.5617341
  99.6622828 142.9290481 159.5003643  99.5834417 141.3999961 160.3927257
  99.8781578 140.1516438 158.2093391  99.9237045 141.6841868 157.3437974
  97.5648941 140.6821213 159.0055216  97.6841444 140.6480585 157.2335859
  97.6171053 142.2043538 158.0863582 112.1490000 138.4140000 152.8740000
 101.7340000 150.3780000 162.1710000 108.0018435 152.8812258 163.1098018
 106.4726208 152.8903423 163.1098476 105.9079748 151.4683454 163.1089514
 104.3797844 151.4749019 163.1083803 103.8082430 150.0750000 163.1080000
 102.4540000 150.0750000 163.1080000 104.4584269 149.0427992 163.1074242
 101.5470000 150.9790000 160.3130000 101.1759627 150.9786082 161.4464083
 101.1729482 150.3626945 163.1104991 108.3710424 152.3468952 163.9932020
 108.3717372 152.3459623 162.2282715 106.1092267 153.4299011 162.2274328
 106.1081634 153.4299044 163.9923625 106.2741151 150.9244740 163.9879224
 106.2740361 150.9259952 162.2277225 104.0125586 151.9933983 162.2161832
 104.0127875 151.9928719 164.0016810 102.0617631 150.9683881 163.1080000
 110.6800000 141.2130000 176.4150000 112.1297774 148.3142005 177.8411438
 110.6206515 148.2287848 177.7542115 110.0609757 147.3256163 178.8452000
 108.5622477 147.2700210 178.6783451 107.9431405 146.4032373 179.7513042
 106.4368159 146.5351808 179.6767451 105.8190844 145.7340000 178.5280000
 104.2730000 145.7340000 178.5280000 103.6656962 147.1607263 178.5280000
 104.1635752 148.0872788 177.4154628 103.6088467 149.5007891 177.6380727
 104.1163630 150.4642987 176.5700697 103.5644346 151.8754171 176.7908251
 104.0729851 152.8156350 175.6956481 103.5262930 154.2307717 175.8727523
 104.0388686 155.1481607 174.7748111 103.7495855 145.0841111 179.8750708
 104.0684433 145.9020878 181.1194143 103.5263105 145.2624233 182.3938002
 103.9543195 146.1263543 183.5739314 103.4380424 145.6050436 184.9085243
 103.9259724 146.5188103 186.0322741 103.4365095 146.0400681 187.3894484
 103.9243657 146.9510514 188.5033876 103.7181881 144.8633906 177.3616574
 104.0717005 143.3775280 177.2514780 103.6779989 142.4428091 178.3999994
 102.1699551 142.4581187 178.6549279 101.4954240 141.8082166 177.4644070
  99.9870012 141.8789084 177.4730253  99.5068935 141.1833068 176.2015470
  97.9988128 141.1800083 176.1094067 110.2180000 141.4810000 175.4600000
 110.1410455 141.1103397 175.4676543 110.0585611 140.7784972 177.2075043
 112.4249754 148.7156320 178.8168291 112.5651727 147.3122427 177.7514485
 110.3179720 147.8416836 176.7740912 110.1788237 149.2284455 177.8538742
 110.3242239 147.7188512 179.8322884 110.4894698 146.3167144 178.7659043
 108.3053187 146.8847845 177.6915598 108.1488951 148.2880287 178.7493450
 108.2772658 146.7412563 180.7375970 108.2573866 145.3577500 179.6475358
 106.1477068 147.5909578 179.6315596 106.1246052 146.1933389 180.6438530
 106.1393425 144.6909625 178.5773618 106.1333881 146.1364737 177.5602644
 103.9122357 147.6296140 179.4704736 102.5773203 147.0466983 178.4742458
 103.8430002 147.7347926 176.4294638 105.2567742 148.1435951 177.4069587
 103.9129731 149.8605757 178.6291851 102.5125120 149.4712478 177.6256420
 103.8219548 150.1027877 175.5802164 105.2125354 150.4947619 176.5945471
 103.8700479 152.2441915 177.7645016 102.4677292 151.8507877 176.7752742
 103.7765892 152.4288654 174.7143420 105.1690986 152.8402493 175.7173350
 103.8267766 154.6297647 176.8487785 102.4310217 154.2143078 175.8493739
 105.1319208 155.2114951 174.7953196 103.6360697 156.1568999 174.9033585
 103.7358333 154.7838719 173.7873785 104.2040542 144.0929619 179.9561353
 102.6616585 144.9735741 179.7657896 103.6146181 146.8940562 181.0631876
 105.1498946 146.0327973 181.2152741 103.9117371 144.2400534 182.5070741
 102.4314861 145.1980040 182.3465076 103.5915385 147.1513520 183.4244737
 105.0505863 146.1774758 183.6041921 103.7996746 144.5808177 185.0748960
 102.3449449 145.5731222 184.8988867 103.5711845 147.5422742 185.8536315
 105.0214190 146.5548191 186.0291142 103.7907463 145.0191405 187.5771609
 102.3390940 146.0083802 187.4036289 105.0193060 146.9836532 188.5301465
 103.5709239 146.5902630 189.4742081 103.5547895 147.9724461 188.3635654
 104.1310188 145.2942503 176.4453470 102.6329227 145.0152412 177.3449758
 105.1097693 143.2309571 176.9492213 103.5840396 143.0249919 176.3368611
 104.2430450 142.6357473 179.3148266 103.9807210 141.4201249 178.1314305
 101.7955027 143.4814618 178.7999114 101.9388804 141.9126479 179.5764419
 101.8253368 140.7631193 177.4087989 101.8149557 142.2867440 176.5367341
  99.6622828 142.9290481 177.4753643  99.5834417 141.3999961 178.3677257
  99.8781578 140.1516438 176.1843391  99.9237045 141.6841868 175.3187974
  97.5648941 140.6821213 176.9805216  97.6841444 140.6480585 175.2085859
  97.6171053 142.2043538 176.0613582 112.1490000 138.4140000 170.8490000
 101.7340000 150.3780000 180.1460000 108.0018435 152.8812258 181.0848018
 106.4726208 152.8903423 181.0848476 105.9079748 151.4683454 181.0839514
 104.3797844 151.4749019 181.0833803 103.8082430 150.0750000 181.0830000
 102.4540000 150.0750000 181.0830000 104.4584269 149.0427992 181.0824242
 101.5470000 150.9790000 178.2880000 101.1759627 150.9786082 179.4214083
 101.1729482 150.3626945 181.0854991 108.3710424 152.3468952 181.9682020
 108.3717372 152.3459623 180.2032715 106.1092267 153.4299011 180.2024328
 106.1081634 153.4299044 181.9673625 106.2741151 150.9244740 181.9629224
 106.2740361 150.9259952 180.2027225 104.0125586 151.9933983 180.1911832
 104.0127875 151.9928719 181.9766810 102.0617631 150.9683881 181.0830000
 110.6800000 159.8170000  68.5660000 112.1297774 166.9182005  69.9921438
 110.6206515 166.8327848  69.9052115 110.0609757 165.9296163  70.9962000
 108.5622477 165.8740210  70.8293451 107.9431405 165.0072373  71.9023042
 106.4368159 165.1391808  71.8277451 105.8190844 164.3380000  70.6790000
 104.2730000 164.3380000  70.6790000 103.6656962 165.7647263  70.6790000
 104.1635752 166.6912788  69.5664628 103.6088467 168.1047891  69.7890727
 104.1163630 169.0682987  68.7210697 103.5644346 170.4794171  68.9418251
 104.0729851 171.4196350  67.8466481 103.5262930 172.8347717  68.0237523
 104.0388686 173.7521607  66.9258111 103.7495855 163.6881111  72.0260708
 104.0684433 164.5060878  73.2704143 103.5263105 163.8664233  74.5448002
 103.9543195 164.7303543  75.7249314 103.4380424 164.2090436  77.0595243
 103.9259724 165.1228103  78.1832741 103.4365095 164.6440681  79.5404484
 103.9243657 165.5550514  80.6543876 103.7181881 163.4673906  69.5126574
 104.0717005 161.9815280  69.4024780 103.6779989 161.0468091  70.5509994
 102.1699551 161.0621187  70.8059279 101.4954240 160.4122166  69.6154070
  99.9870012 160.4829084  69.6240253  99.5068935 159.7873068  68.3525470
  97.9988128 159.7840083  68.2604067 110.2180000 160.0850000  67.6110000
 110.1410455 159.7143397  67.6186543 110.0585611 159.3824972  69.3585043
 112.4249754 167.3196320  70.9678291 112.5651727 165.9162427  69.9024485
 110.3179720 166.4456836  68.9250912 110.1788237 167.8324455  70.0048742
 110.3242239 166.3228512  71.9832884 110.4894698 164.9207144  70.9169043
 108.3053187 165.4887845  69.8425598 108.1488951 166.8920287  70.9003450
 108.2772658 165.3452563  72.8885970 108.2573866 163.9617500  71.7985358
 106.1477068 166.1949578  71.7825596 106.1246052 164.7973389  72.7948530
 106.1393425 163.2949625  70.7283618 106.1333881 164.7404737  69.7112644
 103.9122357 166.2336140  71.6214736 102.5773203 165.6506983  70.6252458
 103.8430002 166.3387926  68.5804638 105.2567742 166.7475951  69.5579587
 103.9129731 168.4645757  70.7801851 102.5125120 168.0752478  69.7766420
 103.8219548 168.7067877  67.7312164 105.2125354 169.0987619  68.7455471
 103.8700479 170.8481915  69.9155016 102.4677292 170.4547877  68.9262742
 103.7765892 171.0328654  66.8653420 105.1690986 171.4442493  67.8683350
 103.8267766 173.2337647  68.9997785 102.4310217 172.8183078  68.0003739
 105.1319208 173.8154951  66.9463196 103.6360697 174.7608999  67.0543585
 103.7358333 173.3878719  65.9383785 104.2040542 162.6969619  72.1071353
 102.6616585 163.5775741  71.9167896 103.6146181 165.4980562  73.2141876
 105.1498946 164.6367973  73.3662741 103.9117371 162.8440534  74.6580741
 102.4314861 163.8020040  74.4975076 103.5915385 165.7553520  75.5754737
 105.0505863 164.7814758  75.7551921 103.7996746 163.1848177  77.2258960
 102.3449449 164.1771222  77.0498867 103.5711845 166.1462742  78.0046315
 105.0214190 165.1588191  78.1801142 103.7907463 163.6231405  79.7281609
 102.3390940 164.6123802  79.5546289 105.0193060 165.5876532  80.6811465
 103.5709239 165.1942630  81.6252081 103.5547895 166.5764461  80.5145654
 104.1310188 163.8982503  68.5963470 102.6329227 163.6192412  69.4959758
 105.1097693 161.8349571  69.1002213 103.5840396 161.6289919  68.4878611
 104.2430450 161.2397473  71.4658266 103.9807210 160.0241249  70.2824305
 101.7955027 162.0854618  70.9509114 101.9388804 160.5166479  71.7274419
 101.8253368 159.3671193  69.5597989 101.8149557 160.8907440  68.6877341
  99.6622828 161.5330481  69.6263643  99.5834417 160.0039961  70.5187257
  99.8781578 158.7556438  68.3353391  99.9237045 160.2881868  67.4697974
  97.5648941 159.2861213  69.1315216  97.6841444 159.2520585  67.3595859
  97.6171053 160.8083538  68.2123582 112.1490000 157.0180000  63.0000000
 101.7340000 168.9820000  72.2970000 108.0018435 171.4852258  73.2358018
 106.4726208 171.4943423  73.2358476 105.9079748 170.0723454  73.2349514
 104.3797844 170.0789019  73.2343803 103.8082430 168.6790000  73.2340000
 102.4540000 168.6790000  73.2340000 104.4584269 167.6467992  73.2334242
 101.5470000 169.5830000  70.4390000 101.1759627 169.5826082  71.5724083
 101.1729482 168.9666945  73.2364991 108.3710424 170.9508952  74.1192020
 108.3717372 170.9499623  72.3542715 106.1092267 172.0339011  72.3534328
 106.1081634 172.0339044  74.1183625 106.2741151 169.5284740  74.1139224
 106.2740361 169.5299952  72.3537225 104.0125586 170.5973983  72.3421832
 104.0127875 170.5968719  74.1276810 102.0617631 169.5723881  73.2340000
 110.6800000 159.8170000  86.5410000 112.1297774 166.9182005  87.9671438
 110.6206515 166.8327848  87.8802115 110.0609757 165.9296163  88.9712000
 108.5622477 165.8740210  88.8043451 107.9431405 165.0072373  89.8773042
 106.4368159 165.1391808  89.8027451 105.8190844 164.3380000  88.6540000
 104.2730000 164.3380000  88.6540000 103.6656962 165.7647263  88.6540000
 104.1635752 166.6912788  87.5414628 103.6088467 168.1047891  87.7640727
 104.1163630 169.0682987  86.6960697 103.5644346 170.4794171  86.9168251
 104.0729851 171.4196350  85.8216481 103.5262930 172.8347717  85.9987523
 104.0388686 173.7521607  84.9008111 103.7495855 163.6881111  90.0010708
 104.0684433 164.5060878  91.2454143 103.5263105 163.8664233  92.5198002
 103.9543195 164.7303543  93.6999314 103.4380424 164.2090436  95.0345243
 103.9259724 165.1228103  96.1582741 103.4365095 164.6440681  97.5154484
 103.9243657 165.5550514  98.6293876 103.7181881 163.4673906  87.4876574
 104.0717005 161.9815280  87.3774780 103.6779989 161.0468091  88.5259994
 102.1699551 161.0621187  88.7809279 101.4954240 160.4122166  87.5904070
  99.9870012 160.4829084  87.5990253  99.5068935 159.7873068  86.3275470
  97.9988128 159.7840083  86.2354067 110.2180000 160.0850000  85.5860000
 110.1410455 159.7143397  85.5936543 110.0585611 159.3824972  87.3335043
 112.4249754 167.3196320  88.9428291 112.5651727 165.9162427  87.8774485
 110.3179720 166.4456836  86.9000912 110.1788237 167.8324455  87.9798742
 110.3242239 166.3228512  89.9582884 110.4894698 164.9207144  88.8919043
 108.3053187 165.4887845  87.8175598 108.1488951 166.8920287  88.8753450
 108.2772658 165.3452563  90.8635970 108.2573866 163.9617500  89.7735358
 106.1477068 166.1949578  89.7575596 106.1246052 164.7973389  90.7698530
 106.1393425 163.2949625  88.7033618 106.1333881 164.7404737  87.6862644
 103.9122357 166.2336140  89.5964736 102.5773203 165.6506983  88.6002458
 103.8430002 166.3387926  86.5554638 105.2567742 166.7475951  87.5329587
 103.9129731 168.4645757  88.7551851 102.5125120 168.0752478  87.7516420
 103.8219548 168.7067877  85.7062164 105.2125354 169.0987619  86.7205471
 103.8700479 170.8481915  87.8905016 102.4677292 170.4547877  86.9012742
 103.7765892 171.0328654  84.8403420 105.1690986 171.4442493  85.8433350
 103.8267766 173.2337647  86.9747785 102.4310217 172.8183078  85.9753739
 105.1319208 173.8154951  84.9213196 103.6360697 174.7608999  85.0293585
 103.7358333 173.3878719  83.9133785 104.2040542 162.6969619  90.0821353
 102.6616585 163.5775741  89.8917896 103.6146181 165.4980562  91.1891876
 105.1498946 164.6367973  91.3412741 103.9117371 162.8440534  92.6330741
 102.4314861 163.8020040  92.4725076 103.5915385 165.7553520  93.5504737
 105.0505863 164.7814758  93.7301921 103.7996746 163.1848177  95.2008960
 102.3449449 164.1771222  95.0248867 103.5711845 166.1462742  95.9796315
 105.0214190 165.1588191  96.1551142 103.7907463 163.6231405  97.7031609
 102.3390940 164.6123802  97.5296289 105.0193060 165.5876532  98.6561465
 103.5709239 165.1942630  99.6002081 103.5547895 166.5764461  98.4895654
 104.1310188 163.8982503  86.5713470 102.6329227 163.6192412  87.4709758
 105.1097693 161.8349571  87.0752213 103.5840396 161.6289919  86.4628611
 104.2430450 161.2397473  89.4408266 103.9807210 160.0241249  88.2574305
 101.7955027 162.0854618  88.9259114 101.9388804 160.5166479  89.7024419
 101.8253368 159.3671193  87.5347989 101.8149557 160.8907440  86.6627341
  99.6622828 161.5330481  87.6013643  99.5834417 160.0039961  88.4937257
  99.8781578 158.7556438  86.3103391  99.9237045 160.2881868  85.4447974
  97.5648941 159.2861213  87.1065216  97.6841444 159.2520585  85.3345859
  97.6171053 160.8083538  86.1873582 112.1490000 157.0180000  80.9750000
 101.7340000 168.9820000  90.2720000 108.0018435 171.4852258  91.2108018
 106.4726208 171.4943423  91.2108476 105.9079748 170.0723454  91.2099514
 104.3797844 170.0789019  91.2093803 103.8082430 168.6790000  91.2090000
 102.4540000 168.6790000  91.2090000 104.4584269 167.6467992  91.2084242
 101.5470000 169.5830000  88.4140000 101.1759627 169.5826082  89.5474083
 101.1729482 168.9666945  91.2114991 108.3710424 170.9508952  92.0942020
 108.3717372 170.9499623  90.3292715 106.1092267 172.0339011  90.3284328
 106.1081634 172.0339044  92.0933625 106.2741151 169.5284740  92.0889224
 106.2740361 169.5299952  90.3287225 104.0125586 170.5973983  90.3171832
 104.0127875 170.5968719  92.1026810 102.0617631 169.5723881  91.2090000
 110.6800000 159.8170000 104.5160000 112.1297774 166.9182005 105.9421438
 110.6206515 166.8327848 105.8552115 110.0609757 165.9296163 106.9462000
 108.5622477 165.8740210 106.7793451 107.9431405 165.0072373 107.8523042
 106.4368159 165.1391808 107.7777451 105.8190844 164.3380000 106.6290000
 104.2730000 164.3380000 106.6290000 103.6656962 165.7647263 106.6290000
 104.1635752 166.6912788 105.5164628 103.6088467 168.1047891 105.7390727
 104.1163630 169.0682987 104.6710697 103.5644346 170.4794171 104.8918251
 104.0729851 171.4196350 103.7966481 103.5262930 172.8347717 103.9737523
 104.0388686 173.7521607 102.8758111 103.7495855 163.6881111 107.9760708
 104.0684433 164.5060878 109.2204143 103.5263105 163.8664233 110.4948002
 103.9543195 164.7303543 111.6749314 103.4380424 164.2090436 113.0095243
 103.9259724 165.1228103 114.1332741 103.4365095 164.6440681 115.4904484
 103.9243657 165.5550514 116.6043876 103.7181881 163.4673906 105.4626574
 104.0717005 161.9815280 105.3524780 103.6779989 161.0468091 106.5009994
 102.1699551 161.0621187 106.7559279 101.4954240 160.4122166 105.5654070
  99.9870012 160.4829084 105.5740253  99.5068935 159.7873068 104.3025470
  97.9988128 159.7840083 104.2104067 110.2180000 160.0850000 103.5610000
 110.1410455 159.7143397 103.5686543 110.0585611 159.3824972 105.3085043
 112.4249754 167.3196320 106.9178291 112.5651727 165.9162427 105.8524485
 110.3179720 166.4456836 104.8750912 110.1788237 167.8324455 105.9548742
 110.3242239 166.3228512 107.9332884 110.4894698 164.9207144 106.8669043
 108.3053187 165.4887845 105.7925598 108.1488951 166.8920287 106.8503450
 108.2772658 165.3452563 108.8385970 108.2573866 163.9617500 107.7485358
 106.1477068 166.1949578 107.7325596 106.1246052 164.7973389 108.7448530
 106.1393425 163.2949625 106.6783618 106.1333881 164.7404737 105.6612644
 103.9122357 166.2336140 107.5714736 102.5773203 165.6506983 106.5752458
 103.8430002 166.3387926 104.5304638 105.2567742 166.7475951 105.5079587
 103.9129731 168.4645757 106.7301851 102.5125120 168.0752478 105.7266420
 103.8219548 168.7067877 103.6812164 105.2125354 169.0987619 104.6955471
 103.8700479 170.8481915 105.8655016 102.4677292 170.4547877 104.8762742
 103.7765892 171.0328654 102.8153420 105.1690986 171.4442493 103.8183350
 103.8267766 173.2337647 104.9497785 102.4310217 172.8183078 103.9503739
 105.1319208 173.8154951 102.8963196 103.6360697 174.7608999 103.0043585
 103.7358333 173.3878719 101.8883785 104.2040542 162.6969619 108.0571353
 102.6616585 163.5775741 107.8667896 103.6146181 165.4980562 109.1641876
 105.1498946 164.6367973 109.3162741 103.9117371 162.8440534 110.6080741
 102.4314861 163.8020040 110.4475076 103.5915385 165.7553520 111.5254737
 105.0505863 164.7814758 111.7051921 103.7996746 163.1848177 113.1758960
 102.3449449 164.1771222 112.9998867 103.5711845 166.1462742 113.9546315
 105.0214190 165.1588191 114.1301142 103.7907463 163.6231405 115.6781609
 102.3390940 164.6123802 115.5046289 105.0193060 165.5876532 116.6311465
 103.5709239 165.1942630 117.5752081 103.5547895 166.5764461 116.4645654
 104.1310188 163.8982503 104.5463470 102.6329227 163.6192412 105.4459758
 105.1097693 161.8349571 105.0502213 103.5840396 161.6289919 104.4378611
 104.2430450 161.2397473 107.4158266 103.9807210 160.0241249 106.2324305
 101.7955027 162.0854618 106.9009114 101.9388804 160.5166479 107.6774419
 101.8253368 159.3671193 105.5097989 101.8149557 160.8907440 104.6377341
  99.6622828 161.5330481 105.5763643  99.5834417 160.0039961 106.4687257
  99.8781578 158.7556438 104.2853391  99.9237045 160.2881868 103.4197974
  97.5648941 159.2861213 105.0815216  97.6841444 159.2520585 103.3095859
  97.6171053 160.8083538 104.1623582 112.1490000 157.0180000  98.9500000
 101.7340000 168.9820000 108.2470000 108.0018435 171.4852258 109.1858018
 106.4726208 171.4943423 109.1858476 105.9079748 170.0723454 109.1849514
 104.3797844 170.0789019 109.1843803 103.8082430 168.6790000 109.1840000
 102.4540000 168.6790000 109.1840000 104.4584269 167.6467992 109.1834242
 101.5470000 169.5830000 106.3890000 101.1759627 169.5826082 107.5224083
 101.1729482 168.9666945 109.1864991 108.3710424 170.9508952 110.0692020
 108.3717372 170.9499623 108.3042715 106.1092267 172.0339011 108.3034328
 106.1081634 172.0339044 110.0683625 106.2741151 169.5284740 110.0639224
 106.2740361 169.5299952 108.3037225 104.0125586 170.5973983 108.2921832
 104.0127875 170.5968719 110.0776810 102.0617631 169.5723881 109.1840000
 110.6800000 159.8170000 122.4900000 112.1297774 166.9182005 123.9161438
 110.6206515 166.8327848 123.8292115 110.0609757 165.9296163 124.9202000
 108.5622477 165.8740210 124.7533451 107.9431405 165.0072373 125.8263042
 106.4368159 165.1391808 125.7517451 105.8190844 164.3380000 124.6030000
 104.2730000 164.3380000 124.6030000 103.6656962 165.7647263 124.6030000
 104.1635752 166.6912788 123.4904628 103.6088467 168.1047891 123.7130727
 104.1163630 169.0682987 122.6450697 103.5644346 170.4794171 122.8658251
 104.0729851 171.4196350 121.7706481 103.5262930 172.8347717 121.9477523
 104.0388686 173.7521607 120.8498111 103.7495855 163.6881111 125.9500708
 104.0684433 164.5060878 127.1944143 103.5263105 163.8664233 128.4688002
 103.9543195 164.7303543 129.6489314 103.4380424 164.2090436 130.9835243
 103.9259724 165.1228103 132.1072741 103.4365095 164.6440681 133.4644484
 103.9243657 165.5550514 134.5783876 103.7181881 163.4673906 123.4366574
 104.0717005 161.9815280 123.3264780 103.6779989 161.0468091 124.4749994
 102.1699551 161.0621187 124.7299279 101.4954240 160.4122166 123.5394070
  99.9870012 160.4829084 123.5480253  99.5068935 159.7873068 122.2765470
  97.9988128 159.7840083 122.1844067 110.2180000 160.0850000 121.5350000
 110.1410455 159.7143397 121.5426543 110.0585611 159.3824972 123.2825043
 112.4249754 167.3196320 124.8918291 112.5651727 165.9162427 123.8264485
 110.3179720 166.4456836 122.8490912 110.1788237 167.8324455 123.9288742
 110.3242239 166.3228512 125.9072884 110.4894698 164.9207144 124.8409043
 108.3053187 165.4887845 123.7665598 108.1488951 166.8920287 124.8243450
 108.2772658 165.3452563 126.8125970 108.2573866 163.9617500 125.7225358
 106.1477068 166.1949578 125.7065596 106.1246052 164.7973389 126.7188530
 106.1393425 163.2949625 124.6523618 106.1333881 164.7404737 123.6352644
 103.9122357 166.2336140 125.5454736 102.5773203 165.6506983 124.5492458
 103.8430002 166.3387926 122.5044638 105.2567742 166.7475951 123.4819587
 103.9129731 168.4645757 124.7041851 102.5125120 168.0752478 123.7006420
 103.8219548 168.7067877 121.6552164 105.2125354 169.0987619 122.6695471
 103.8700479 170.8481915 123.8395016 102.4677292 170.4547877 122.8502742
 103.7765892 171.0328654 120.7893420 105.1690986 171.4442493 121.7923350
 103.8267766 173.2337647 122.9237785 102.4310217 172.8183078 121.9243739
 105.1319208 173.8154951 120.8703196 103.6360697 174.7608999 120.9783585
 103.7358333 173.3878719 119.8623785 104.2040542 162.6969619 126.0311353
 102.6616585 163.5775741 125.8407896 103.6146181 165.4980562 127.1381876
 105.1498946 164.6367973 127.2902741 103.9117371 162.8440534 128.5820741
 102.4314861 163.8020040 128.4215076 103.5915385 165.7553520 129.4994737
 105.0505863 164.7814758 129.6791921 103.7996746 163.1848177 131.1498960
 102.3449449 164.1771222 130.9738867 103.5711845 166.1462742 131.9286315
 105.0214190 165.1588191 132.1041142 103.7907463 163.6231405 133.6521609
 102.3390940 164.6123802 133.4786289 105.0193060 165.5876532 134.6051465
 103.5709239 165.1942630 135.5492081 103.5547895 166.5764461 134.4385654
 104.1310188 163.8982503 122.5203470 102.6329227 163.6192412 123.4199758
 105.1097693 161.8349571 123.0242213 103.5840396 161.6289919 122.4118611
 104.2430450 161.2397473 125.3898266 103.9807210 160.0241249 124.2064305
 101.7955027 162.0854618 124.8749114 101.9388804 160.5166479 125.6514419
 101.8253368 159.3671193 123.4837989 101.8149557 160.8907440 122.6117341
  99.6622828 161.5330481 123.5503643  99.5834417 160.0039961 124.4427257
  99.8781578 158.7556438 122.2593391  99.9237045 160.2881868 121.3937974
  97.5648941 159.2861213 123.0555216  97.6841444 159.2520585 121.2835859
  97.6171053 160.8083538 122.1363582 112.1490000 157.0180000 116.9240000
 101.7340000 168.9820000 126.2210000 108.0018435 171.4852258 127.1598018
 106.4726208 171.4943423 127.1598476 105.9079748 170.0723454 127.1589514
 104.3797844 170.0789019 127.1583803 103.8082430 168.6790000 127.1580000
 102.4540000 168.6790000 127.1580000 104.4584269 167.6467992 127.1574242
 101.5470000 169.5830000 124.3630000 101.1759627 169.5826082 125.4964083
 101.1729482 168.9666945 127.1604991 108.3710424 170.9508952 128.0432020
 108.3717372 170.9499623 126.2782715 106.1092267 172.0339011 126.2774328
 106.1081634 172.0339044 128.0423625 106.2741151 169.5284740 128.0379224
 106.2740361 169.5299952 126.2777225 104.0125586 170.5973983 126.2661832
 104.0127875 170.5968719 128.0516810 102.0617631 169.5723881 127.1580000
 110.6800000 159.8170000 140.4650000 112.1297774 166.9182005 141.8911438
 110.6206515 166.8327848 141.8042115 110.0609757 165.9296163 142.8952000
 108.5622477 165.8740210 142.7283451 107.9431405 165.0072373 143.8013042
 106.4368159 165.1391808 143.7267451 105.8190844 164.3380000 142.5780000
 104.2730000 164.3380000 142.5780000 103.6656962 165.7647263 142.5780000
 104.1635752 166.6912788 141.4654628 103.6088467 168.1047891 141.6880727
 104.1163630 169.0682987 140.6200697 103.5644346 170.4794171 140.8408251
 104.0729851 171.4196350 139.7456481 103.5262930 172.8347717 139.9227523
 104.0388686 173.7521607 138.8248111 103.7495855 163.6881111 143.9250708
 104.0684433 164.5060878 145.1694143 103.5263105 163.8664233 146.4438002
 103.9543195 164.7303543 147.6239314 103.4380424 164.2090436 148.9585243
 103.9259724 165.1228103 150.0822741 103.4365095 164.6440681 151.4394484
 103.9243657 165.5550514 152.5533876 103.7181881 163.4673906 141.4116574
 104.0717005 161.9815280 141.3014780 103.6779989 161.0468091 142.4499994
 102.1699551 161.0621187 142.7049279 101.4954240 160.4122166 141.5144070
  99.9870012 160.4829084 141.5230253  99.5068935 159.7873068 140.2515470
  97.9988128 159.7840083 140.1594067 110.2180000 160.0850000 139.5100000
 110.1410455 159.7143397 139.5176543 110.0585611 159.3824972 141.2575043
 112.4249754 167.3196320 142.8668291 112.5651727 165.9162427 141.8014485
 110.3179720 166.4456836 140.8240912 110.1788237 167.8324455 141.9038742
 110.3242239 166.3228512 143.8822884 110.4894698 164.9207144 142.8159043
 108.3053187 165.4887845 141.7415598 108.1488951 166.8920287 142.7993450
 108.2772658 165.3452563 144.7875970 108.2573866 163.9617500 143.6975358
 106.1477068 166.1949578 143.6815596 106.1246052 164.7973389 144.6938530
 106.1393425 163.2949625 142.6273618 106.1333881 164.7404737 141.6102644
 103.9122357 166.2336140 143.5204736 102.5773203 165.6506983 142.5242458
 103.8430002 166.3387926 140.4794638 105.2567742 166.7475951 141.4569587
 103.9129731 168.4645757 142.6791851 102.5125120 168.0752478 141.6756420
 103.8219548 168.7067877 139.6302164 105.2125354 169.0987619 140.6445471
 103.8700479 170.8481915 141.8145016 102.4677292 170.4547877 140.8252742
 103.7765892 171.0328654 138.7643420 105.1690986 171.4442493 139.7673350
 103.8267766 173.2337647 140.8987785 102.4310217 172.8183078 139.8993739
 105.1319208 173.8154951 138.8453196 103.6360697 174.7608999 138.9533585
 103.7358333 173.3878719 137.8373785 104.2040542 162.6969619 144.0061353
 102.6616585 163.5775741 143.8157896 103.6146181 165.4980562 145.1131876
 105.1498946 164.6367973 145.2652741 103.9117371 162.8440534 146.5570741
 102.4314861 163.8020040 146.3965076 103.5915385 165.7553520 147.4744737
 105.0505863 164.7814758 147.6541921 103.7996746 163.1848177 149.1248960
 102.3449449 164.1771222 148.9488867 103.5711845 166.1462742 149.9036315
 105.0214190 165.1588191 150.0791142 103.7907463 163.6231405 151.6271609
 102.3390940 164.6123802 151.4536289 105.0193060 165.5876532 152.5801465
 103.5709239 165.1942630 153.5242081 103.5547895 166.5764461 152.4135654
 104.1310188 163.8982503 140.4953470 102.6329227 163.6192412 141.3949758
 105.1097693 161.8349571 140.9992213 103.5840396 161.6289919 140.3868611
 104.2430450 161.2397473 143.3648266 103.9807210 160.0241249 142.1814305
 101.7955027 162.0854618 142.8499114 101.9388804 160.5166479 143.6264419
 101.8253368 159.3671193 141.4587989 101.8149557 160.8907440 140.5867341
  99.6622828 161.5330481 141.5253643  99.5834417 160.0039961 142.4177257
  99.8781578 158.7556438 140.2343391  99.9237045 160.2881868 139.3687974
  97.5648941 159.2861213 141.0305216  97.6841444 159.2520585 139.2585859
  97.6171053 160.8083538 140.1113582 112.1490000 157.0180000 134.8990000
 101.7340000 168.9820000 144.1960000 108.0018435 171.4852258 145.1348018
 106.4726208 171.4943423 145.1348476 105.9079748 170.0723454 145.1339514
 104.3797844 170.0789019 145.1333803 103.8082430 168.6790000 145.1330000
 102.4540000 168.6790000 145.1330000 104.4584269 167.6467992 145.1324242
 101.5470000 169.5830000 142.3380000 101.1759627 169.5826082 143.4714083
 101.1729482 168.9666945 145.1354991 108.3710424 170.9508952 146.0182020
 108.3717372 170.9499623 144.2532715 106.1092267 172.0339011 144.2524328
 106.1081634 172.0339044 146.0173625 106.2741151 169.5284740 146.0129224
 106.2740361 169.5299952 144.2527225 104.0125586 170.5973983 144.2411832
 104.0127875 170.5968719 146.0266810 102.0617631 169.5723881 145.1330000
 110.6800000 159.8170000 158.4400000 112.1297774 166.9182005 159.8661438
 110.6206515 166.8327848 159.7792115 110.0609757 165.9296163 160.8702000
 108.5622477 165.8740210 160.7033451 107.9431405 165.0072373 161.7763042
 106.4368159 165.1391808 161.7017451 105.8190844 164.3380000 160.5530000
 104.2730000 164.3380000 160.5530000 103.6656962 165.7647263 160.5530000
 104.1635752 166.6912788 159.4404628 103.6088467 168.1047891 159.6630727
 104.1163630 169.0682987 158.5950697 103.5644346 170.4794171 158.8158251
 104.0729851 171.4196350 157.7206481 103.5262930 172.8347717 157.8977523
 104.0388686 173.7521607 156.7998111 103.7495855 163.6881111 161.9000708
 104.0684433 164.5060878 163.1444143 103.5263105 163.8664233 164.4188002
 103.9543195 164.7303543 165.5989314 103.4380424 164.2090436 166.9335243
 103.9259724 165.1228103 168.0572741 103.4365095 164.6440681 169.4144484
 103.9243657 165.5550514 170.5283876 103.7181881 163.4673906 159.3866574
 104.0717005 161.9815280 159.2764780 103.6779989 161.0468091 160.4249994
 102.1699551 161.0621187 160.6799279 101.4954240 160.4122166 159.4894070
  99.9870012 160.4829084 159.4980253  99.5068935 159.7873068 158.2265470
  97.9988128 159.7840083 158.1344067 110.2180000 160.0850000 157.4850000
 110.1410455 159.7143397 157.4926543 110.0585611 159.3824972 159.2325043
 112.4249754 167.3196320 160.8418291 112.5651727 165.9162427 159.7764485
 110.3179720 166.4456836 158.7990912 110.1788237 167.8324455 159.8788742
 110.3242239 166.3228512 161.8572884 110.4894698 164.9207144 160.7909043
 108.3053187 165.4887845 159.7165598 108.1488951 166.8920287 160.7743450
 108.2772658 165.3452563 162.7625970 108.2573866 163.9617500 161.6725358
 106.1477068 166.1949578 161.6565596 106.1246052 164.7973389 162.6688530
 106.1393425 163.2949625 160.6023618 106.1333881 164.7404737 159.5852644
 103.9122357 166.2336140 161.4954736 102.5773203 165.6506983 160.4992458
 103.8430002 166.3387926 158.4544638 105.2567742 166.7475951 159.4319587
 103.9129731 168.4645757 160.6541851 102.5125120 168.0752478 159.6506420
 103.8219548 168.7067877 157.6052164 105.2125354 169.0987619 158.6195471
 103.8700479 170.8481915 159.7895016 102.4677292 170.4547877 158.8002742
 103.7765892 171.0328654 156.7393420 105.1690986 171.4442493 157.7423350
 103.8267766 173.2337647 158.8737785 102.4310217 172.8183078 157.8743739
 105.1319208 173.8154951 156.8203196 103.6360697 174.7608999 156.9283585
 103.7358333 173.3878719 155.8123785 104.2040542 162.6969619 161.9811353
 102.6616585 163.5775741 161.7907896 103.6146181 165.4980562 163.0881876
 105.1498946 164.6367973 163.2402741 103.9117371 162.8440534 164.5320741
 102.4314861 163.8020040 164.3715076 103.5915385 165.7553520 165.4494737
 105.0505863 164.7814758 165.6291921 103.7996746 163.1848177 167.0998960
 102.3449449 164.1771222 166.9238867 103.5711845 166.1462742 167.8786315
 105.0214190 165.1588191 168.0541142 103.7907463 163.6231405 169.6021609
 102.3390940 164.6123802 169.4286289 105.0193060 165.5876532 170.5551465
 103.5709239 165.1942630 171.4992081 103.5547895 166.5764461 170.3885654
 104.1310188 163.8982503 158.4703470 102.6329227 163.6192412 159.3699758
 105.1097693 161.8349571 158.9742213 103.5840396 161.6289919 158.3618611
 104.2430450 161.2397473 161.3398266 103.9807210 160.0241249 160.1564305
 101.7955027 162.0854618 160.8249114 101.9388804 160.5166479 161.6014419
 101.8253368 159.3671193 159.4337989 101.8149557 160.8907440 158.5617341
  99.6622828 161.5330481 159.5003643  99.5834417 160.0039961 160.3927257
  99.8781578 158.7556438 158.2093391  99.9237045 160.2881868 157.3437974
  97.5648941 159.2861213 159.0055216  97.6841444 159.2520585 157.2335859
  97.6171053 160.8083538 158.0863582 112.1490000 157.0180000 152.8740000
 101.7340000 168.9820000 162.1710000 108.0018435 171.4852258 163.1098018
 106.4726208 171.4943423 163.1098476 105.9079748 170.0723454 163.1089514
 104.3797844 170.0789019 163.1083803 103.8082430 168.6790000 163.1080000
 102.4540000 168.6790000 163.1080000 104.4584269 167.6467992 163.1074242
 101.5470000 169.5830000 160.3130000 101.1759627 169.5826082 161.4464083
 101.1729482 168.9666945 163.1104991 108.3710424 170.9508952 163.9932020
 108.3717372 170.9499623 162.2282715 106.1092267 172.0339011 162.2274328
 106.1081634 172.0339044 163.9923625 106.2741151 169.5284740 163.9879224
 106.2740361 169.5299952 162.2277225 104.0125586 170.5973983 162.2161832
 104.0127875 170.5968719 164.0016810 102.0617631 169.5723881 163.1080000
 110.6800000 159.8170000 176.4150000 112.1297774 166.9182005 177.8411438
 110.6206515 166.8327848 177.7542115 110.0609757 165.9296163 178.8452000
 108.5622477 165.8740210 178.6783451 107.9431405 165.0072373 179.7513042
 106.4368159 165.1391808 179.6767451 105.8190844 164.3380000 178.5280000
 104.2730000 164.3380000 178.5280000 103.6656962 165.7647263 178.5280000
 104.1635752 166.6912788 177.4154628 103.6088467 168.1047891 177.6380727
 104.1163630 169.0682987 176.5700697 103.5644346 170.4794171 176.7908251
 104.0729851 171.4196350 175.6956481 103.5262930 172.8347717 175.8727523
 104.0388686 173.7521607 174.7748111 103.7495855 163.6881111 179.8750708
 104.0684433 164.5060878 181.1194143 103.5263105 163.8664233 182.3938002
 103.9543195 164.7303543 183.5739314 103.4380424 164.2090436 184.9085243
 103.9259724 165.1228103 186.0322741 103.4365095 164.6440681 187.3894484
 103.9243657 165.5550514 188.5033876 103.7181881 163.4673906 177.3616574
 104.0717005 161.9815280 177.2514780 103.6779989 161.0468091 178.3999994
 102.1699551 161.0621187 178.6549279 101.4954240 160.4122166 177.4644070
  99.9870012 160.4829084 177.4730253  99.5068935 159.7873068 176.2015470
  97.9988128 159.7840083 176.1094067 110.2180000 160.0850000 175.4600000
 110.1410455 159.7143397 175.4676543 110.0585611 159.3824972 177.2075043
 112.4249754 167.3196320 178.8168291 112.5651727 165.9162427 177.7514485
 110.3179720 166.4456836 176.7740912 110.1788237 167.8324455 177.8538742
 110.3242239 166.3228512 179.8322884 110.4894698 164.9207144 178.7659043
 108.3053187 165.4887845 177.6915598 108.1488951 166.8920287 178.7493450
 108.2772658 165.3452563 180.7375970 108.2573866 163.9617500 179.6475358
 106.1477068 166.1949578 179.6315596 106.1246052 164.7973389 180.6438530
 106.1393425 163.2949625 178.5773618 106.1333881 164.7404737 177.5602644
 103.9122357 166.2336140 179.4704736 102.5773203 165.6506983 178.4742458
 103.8430002 166.3387926 176.4294638 105.2567742 166.7475951 177.4069587
 103.9129731 168.4645757 178.6291851 102.5125120 168.0752478 177.6256420
 103.8219548 168.7067877 175.5802164 105.2125354 169.0987619 176.5945471
 103.8700479 170.8481915 177.7645016 102.4677292 170.4547877 176.7752742
 103.7765892 171.0328654 174.7143420 105.1690986 171.4442493 175.7173350
 103.8267766 173.2337647 176.8487785 102.4310217 172.8183078 175.8493739
 105.1319208 173.8154951 174.7953196 103.6360697 174.7608999 174.9033585
 103.7358333 173.3878719 173.7873785 104.2040542 162.6969619 179.9561353
 102.6616585 163.5775741 179.7657896 103.6146181 165.4980562 181.0631876
 105.1498946 164.6367973 181.2152741 103.9117371 162.8440534 182.5070741
 102.4314861 163.8020040 182.3465076 103.5915385 165.7553520 183.4244737
 105.0505863 164.7814758 183.6041921 103.7996746 163.1848177 185.0748960
 102.3449449 164.1771222 184.8988867 103.5711845 166.1462742 185.8536315
 105.0214190 165.1588191 186.0291142 103.7907463 163.6231405 187.5771609
 102.3390940 164.6123802 187.4036289 105.0193060 165.5876532 188.5301465
 103.5709239 165.1942630 189.4742081 103.5547895 166.5764461 188.3635654
 104.1310188 163.8982503 176.4453470 102.6329227 163.6192412 177.3449758
 105.1097693 161.8349571 176.9492213 103.5840396 161.6289919 176.3368611
 104.2430450 161.2397473 179.3148266 103.9807210 160.0241249 178.1314305
 101.7955027 162.0854618 178.7999114 101.9388804 160.5166479 179.5764419
 101.8253368 159.3671193 177.4087989 101.8149557 160.8907440 176.5367341
  99.6622828 161.5330481 177.4753643  99.5834417 160.0039961 178.3677257
  99.8781578 158.7556438 176.1843391  99.9237045 160.2881868 175.3187974
  97.5648941 159.2861213 176.9805216  97.6841444 159.2520585 175.2085859
  97.6171053 160.8083538 176.0613582 112.1490000 157.0180000 170.8490000
 101.7340000 168.9820000 180.1460000 108.0018435 171.4852258 181.0848018
 106.4726208 171.4943423 181.0848476 105.9079748 170.0723454 181.0839514
 104.3797844 170.0789019 181.0833803 103.8082430 168.6790000 181.0830000
 102.4540000 168.6790000 181.0830000 104.4584269 167.6467992 181.0824242
 101.5470000 169.5830000 178.2880000 101.1759627 169.5826082 179.4214083
 101.1729482 168.9666945 181.0854991 108.3710424 170.9508952 181.9682020
 108.3717372 170.9499623 180.2032715 106.1092267 172.0339011 180.2024328
 106.1081634 172.0339044 181.9673625 106.2741151 169.5284740 181.9629224
 106.2740361 169.5299952 180.2027225 104.0125586 170.5973983 180.1911832
 104.0127875 170.5968719 181.9766810 102.0617631 169.5723881 181.0830000
 110.6800000 178.4210000  68.5660000 112.1297774 185.5222005  69.9921438
 110.6206515 185.4367848  69.9052115 110.0609757 184.5336163  70.9962000
 108.5622477 184.4780210  70.8293451 107.9431405 183.6112373  71.9023042
 106.4368159 183.7431808  71.8277451 105.8190844 182.9420000  70.6790000
 104.2730000 182.9420000  70.6790000 103.6656962 184.3687263  70.6790000
 104.1635752 185.2952788  69.5664628 103.6088467 186.7087891  69.7890727
 104.1163630 187.6722987  68.7210697 103.5644346 189.0834171  68.9418251
 104.0729851 190.0236350  67.8466481 103.5262930 191.4387717  68.0237523
 104.0388686 192.3561607  66.9258111 103.7495855 182.2921111  72.0260708
 104.0684433 183.1100878  73.2704143 103.5263105 182.4704233  74.5448002
 103.9543195 183.3343543  75.7249314 103.4380424 182.8130436  77.0595243
 103.9259724 183.7268103  78.1832741 103.4365095 183.2480681  79.5404484
 103.9243657 184.1590514  80.6543876 103.7181881 182.0713906  69.5126574
 104.0717005 180.5855280  69.4024780 103.6779989 179.6508091  70.5509994
 102.1699551 179.6661187  70.8059279 101.4954240 179.0162166  69.6154070
  99.9870012 179.0869084  69.6240253  99.5068935 178.3913068  68.3525470
  97.9988128 178.3880083  68.2604067 110.2180000 178.6890000  67.6110000
 110.1410455 178.3183397  67.6186543 110.0585611 177.9864972  69.3585043
 112.4249754 185.9236320  70.9678291 112.5651727 184.5202427  69.9024485
 110.3179720 185.0496836  68.9250912 110.1788237 186.4364455  70.0048742
 110.3242239 184.9268512  71.9832884 110.4894698 183.5247144  70.9169043
 108.3053187 184.0927845  69.8425598 108.1488951 185.4960287  70.9003450
 108.2772658 183.9492563  72.8885970 108.2573866 182.5657500  71.7985358
 106.1477068 184.7989578  71.7825596 106.1246052 183.4013389  72.7948530
 106.1393425 181.8989625  70.7283618 106.1333881 183.3444737  69.7112644
 103.9122357 184.8376140  71.6214736 102.5773203 184.2546983  70.6252458
 103.8430002 184.9427926  68.5804638 105.2567742 185.3515951  69.5579587
 103.9129731 187.0685757  70.7801851 102.5125120 186.6792478  69.7766420
 103.8219548 187.3107877  67.7312164 105.2125354 187.7027619  68.7455471
 103.8700479 189.4521915  69.9155016 102.4677292 189.0587877  68.9262742
 103.7765892 189.6368654  66.8653420 105.1690986 190.0482493  67.8683350
 103.8267766 191.8377647  68.9997785 102.4310217 191.4223078  68.0003739
 105.1319208 192.4194951  66.9463196 103.6360697 193.3648999  67.0543585
 103.7358333 191.9918719  65.9383785 104.2040542 181.3009619  72.1071353
 102.6616585 182.1815741  71.9167896 103.6146181 184.1020562  73.2141876
 105.1498946 183.2407973  73.3662741 103.9117371 181.4480534  74.6580741
 102.4314861 182.4060040  74.4975076 103.5915385 184.3593520  75.5754737
 105.0505863 183.3854758  75.7551921 103.7996746 181.7888177  77.2258960
 102.3449449 182.7811222  77.0498867 103.5711845 184.7502742  78.0046315
 105.0214190 183.7628191  78.1801142 103.7907463 182.2271405  79.7281609
 102.3390940 183.2163802  79.5546289 105.0193060 184.1916532  80.6811465
 103.5709239 183.7982630  81.6252081 103.5547895 185.1804461  80.5145654
 104.1310188 182.5022503  68.5963470 102.6329227 182.2232412  69.4959758
 105.1097693 180.4389571  69.1002213 103.5840396 180.2329919  68.4878611
 104.2430450 179.8437473  71.4658266 103.9807210 178.6281249  70.2824305
 101.7955027 180.6894618  70.9509114 101.9388804 179.1206479  71.7274419
 101.8253368 177.9711193  69.5597989 101.8149557 179.4947440  68.6877341
  99.6622828 180.1370481  69.6263643  99.5834417 178.6079961  70.5187257
  99.8781578 177.3596438  68.3353391  99.9237045 178.8921868  67.4697974
  97.5648941 177.8901213  69.1315216  97.6841444 177.8560585  67.3595859
  97.6171053 179.4123538  68.2123582 112.1490000 175.6220000  63.0000000
 101.7340000 187.5860000  72.2970000 108.0018435 190.0892258  73.2358018
 106.4726208 190.0983423  73.2358476 105.9079748 188.6763454  73.2349514
 104.3797844 188.6829019  73.2343803 103.8082430 187.2830000  73.2340000
 102.4540000 187.2830000  73.2340000 104.4584269 186.2507992  73.2334242
 101.5470000 188.1870000  70.4390000 101.1759627 188.1866082  71.5724083
 101.1729482 187.5706945  73.2364991 108.3710424 189.5548952  74.1192020
 108.3717372 189.5539623  72.3542715 106.1092267 190.6379011  72.3534328
 106.1081634 190.6379044  74.1183625 106.2741151 188.1324740  74.1139224
 106.2740361 188.1339952  72.3537225 104.0125586 189.2013983  72.3421832
 104.0127875 189.2008719  74.1276810 102.0617631 188.1763881  73.2340000
 110.6800000 178.4210000  86.5410000 112.1297774 185.5222005  87.9671438
 110.6206515 185.4367848  87.8802115 110.0609757 184.5336163  88.9712000
 108.5622477 184.4780210  88.8043451 107.9431405 183.6112373  89.8773042
 106.4368159 183.7431808  89.8027451 105.8190844 182.9420000  88.6540000
 104.2730000 182.9420000  88.6540000 103.6656962 184.3687263  88.6540000
 104.1635752 185.2952788  87.5414628 103.6088467 186.7087891  87.7640727
 104.1163630 187.6722987  86.6960697 103.5644346 189.0834171  86.9168251
 104.0729851 190.0236350  85.8216481 103.5262930 191.4387717  85.9987523
 104.0388686 192.3561607  84.9008111 103.7495855 182.2921111  90.0010708
 104.0684433 183.1100878  91.2454143 103.5263105 182.4704233  92.5198002
 103.9543195 183.3343543  93.6999314 103.4380424 182.8130436  95.0345243
 103.9259724 183.7268103  96.1582741 103.4365095 183.2480681  97.5154484
 103.9243657 184.1590514  98.6293876 103.7181881 182.0713906  87.4876574
 104.0717005 180.5855280  87.3774780 103.6779989 179.6508091  88.5259994
 102.1699551 179.6661187  88.7809279 101.4954240 179.0162166  87.5904070
  99.9870012 179.0869084  87.5990253  99.5068935 178.3913068  86.3275470
  97.9988128 178.3880083  86.2354067 110.2180000 178.6890000  85.5860000
 110.1410455 178.3183397  85.5936543 110.0585611 177.9864972  87.3335043
 112.4249754 185.9236320  88.9428291 112.5651727 184.5202427  87.8774485
 110.3179720 185.0496836  86.9000912 110.1788237 186.4364455  87.9798742
 110.3242239 184.9268512  89.9582884 110.4894698 183.5247144  88.8919043
 108.3053187 184.0927845  87.8175598 108.1488951 185.4960287  88.8753450
 108.2772658 183.9492563  90.8635970 108.2573866 182.5657500  89.7735358
 106.1477068 184.7989578  89.7575596 106.1246052 183.4013389  90.7698530
 106.1393425 181.8989625  88.7033618 106.1333881 183.3444737  87.6862644
 103.9122357 184.8376140  89.5964736 102.5773203 184.2546983  88.6002458
 103.8430002 184.9427926  86.5554638 105.2567742 185.3515951  87.5329587
 103.9129731 187.0685757  88.7551851 102.5125120 186.6792478  87.7516420
 103.8219548 187.3107877  85.7062164 105.2125354 187.7027619  86.7205471
 103.8700479 189.4521915  87.8905016 102.4677292 189.0587877  86.9012742
 103.7765892 189.6368654  84.8403420 105.1690986 190.0482493  85.8433350
 103.8267766 191.8377647  86.9747785 102.4310217 191.4223078  85.9753739
 105.1319208 192.4194951  84.9213196 103.6360697 193.3648999  85.0293585
 103.7358333 191.9918719  83.9133785 104.2040542 181.3009619  90.0821353
 102.6616585 182.1815741  89.8917896 103.6146181 184.1020562  91.1891876
 105.1498946 183.2407973  91.3412741 103.9117371 181.4480534  92.6330741
 102.4314861 182.4060040  92.4725076 103.5915385 184.3593520  93.5504737
 105.0505863 183.3854758  93.7301921 103.7996746 181.7888177  95.2008960
 102.3449449 182.7811222  95.0248867 103.5711845 184.7502742  95.9796315
 105.0214190 183.7628191  96.1551142 103.7907463 182.2271405  97.7031609
 102.3390940 183.2163802  97.5296289 105.0193060 184.1916532  98.6561465
 103.5709239 183.7982630  99.6002081 103.5547895 185.1804461  98.4895654
 104.1310188 182.5022503  86.5713470 102.6329227 182.2232412  87.4709758
 105.1097693 180.4389571  87.0752213 103.5840396 180.2329919  86.4628611
 104.2430450 179.8437473  89.4408266 103.9807210 178.6281249  88.2574305
 101.7955027 180.6894618  88.9259114 101.9388804 179.1206479  89.7024419
 101.8253368 177.9711193  87.5347989 101.8149557 179.4947440  86.6627341
  99.6622828 180.1370481  87.6013643  99.5834417 178.6079961  88.4937257
  99.8781578 177.3596438  86.3103391  99.9237045 178.8921868  85.4447974
  97.5648941 177.8901213  87.1065216  97.6841444 177.8560585  85.3345859
  97.6171053 179.4123538  86.1873582 112.1490000 175.6220000  80.9750000
 101.7340000 187.5860000  90.2720000 108.0018435 190.0892258  91.2108018
 106.4726208 190.0983423  91.2108476 105.9079748 188.6763454  91.2099514
 104.3797844 188.6829019  91.2093803 103.8082430 187.2830000  91.2090000
 102.4540000 187.2830000  91.2090000 104.4584269 186.2507992  91.2084242
 101.5470000 188.1870000  88.4140000 101.1759627 188.1866082  89.5474083
 101.1729482 187.5706945  91.2114991 108.3710424 189.5548952  92.0942020
 108.3717372 189.5539623  90.3292715 106.1092267 190.6379011  90.3284328
 106.1081634 190.6379044  92.0933625 106.2741151 188.1324740  92.0889224
 106.2740361 188.1339952  90.3287225 104.0125586 189.2013983  90.3171832
 104.0127875 189.2008719  92.1026810 102.0617631 188.1763881  91.2090000
 110.6800000 178.4210000 104.5160000 112.1297774 185.5222005 105.9421438
 110.6206515 185.4367848 105.8552115 110.0609757 184.5336163 106.9462000
 108.5622477 184.4780210 106.7793451 107.9431405 183.6112373 107.8523042
 106.4368159 183.7431808 107.7777451 105.8190844 182.9420000 106.6290000
 104.2730000 182.9420000 106.6290000 103.6656962 184.3687263 106.6290000
 104.1635752 185.2952788 105.5164628 103.6088467 186.7087891 105.7390727
 104.1163630 187.6722987 104.6710697 103.5644346 189.0834171 104.8918251
 104.0729851 190.0236350 103.7966481 103.5262930 191.4387717 103.9737523
 104.0388686 192.3561607 102.8758111 103.7495855 182.2921111 107.9760708
 104.0684433 183.1100878 109.2204143 103.5263105 182.4704233 110.4948002
 103.9543195 183.3343543 111.6749314 103.4380424 182.8130436 113.0095243
 103.9259724 183.7268103 114.1332741 103.4365095 183.2480681 115.4904484
 103.9243657 184.1590514 116.6043876 103.7181881 182.0713906 105.4626574
 104.0717005 180.5855280 105.3524780 103.6779989 179.6508091 106.5009994
 102.1699551 179.6661187 106.7559279 101.4954240 179.0162166 105.5654070
  99.9870012 179.0869084 105.5740253  99.5068935 178.3913068 104.3025470
  97.9988128 178.3880083 104.2104067 110.2180000 178.6890000 103.5610000
 110.1410455 178.3183397 103.5686543 110.0585611 177.9864972 105.3085043
 112.4249754 185.9236320 106.9178291 112.5651727 184.5202427 105.8524485
 110.3179720 185.0496836 104.8750912 110.1788237 186.4364455 105.9548742
 110.3242239 184.9268512 107.9332884 110.4894698 183.5247144 106.8669043
 108.3053187 184.0927845 105.7925598 108.1488951 185.4960287 106.8503450
 108.2772658 183.9492563 108.8385970 108.2573866 182.5657500 107.7485358
 106.1477068 184.7989578 107.7325596 106.1246052 183.4013389 108.7448530
 106.1393425 181.8989625 106.6783618 106.1333881 183.3444737 105.6612644
 103.9122357 184.8376140 107.5714736 102.5773203 184.2546983 106.5752458
 103.8430002 184.9427926 104.5304638 105.2567742 185.3515951 105.5079587
 103.9129731 187.0685757 106.7301851 102.5125120 186.6792478 105.7266420
 103.8219548 187.3107877 103.6812164 105.2125354 187.7027619 104.6955471
 103.8700479 189.4521915 105.8655016 102.4677292 189.0587877 104.8762742
 103.7765892 189.6368654 102.8153420 105.1690986 190.0482493 103.8183350
 103.8267766 191.8377647 104.9497785 102.4310217 191.4223078 103.9503739
 105.1319208 192.4194951 102.8963196 103.6360697 193.3648999 103.0043585
 103.7358333 191.9918719 101.8883785 104.2040542 181.3009619 108.0571353
 102.6616585 182.1815741 107.8667896 103.6146181 184.1020562 109.1641876
 105.1498946 183.2407973 109.3162741 103.9117371 181.4480534 110.6080741
 102.4314861 182.4060040 110.4475076 103.5915385 184.3593520 111.5254737
 105.0505863 183.3854758 111.7051921 103.7996746 181.7888177 113.1758960
 102.3449449 182.7811222 112.9998867 103.5711845 184.7502742 113.9546315
 105.0214190 183.7628191 114.1301142 103.7907463 182.2271405 115.6781609
 102.3390940 183.2163802 115.5046289 105.0193060 184.1916532 116.6311465
 103.5709239 183.7982630 117.5752081 103.5547895 185.1804461 116.4645654
 104.1310188 182.5022503 104.5463470 102.6329227 182.2232412 105.4459758
 105.1097693 180.4389571 105.0502213 103.5840396 180.2329919 104.4378611
 104.2430450 179.8437473 107.4158266 103.9807210 178.6281249 106.2324305
 101.7955027 180.6894618 106.9009114 101.9388804 179.1206479 107.6774419
 101.8253368 177.9711193 105.5097989 101.8149557 179.4947440 104.6377341
  99.6622828 180.1370481 105.5763643  99.5834417 178.6079961 106.4687257
  99.8781578 177.3596438 104.2853391  99.9237045 178.8921868 103.4197974
  97.5648941 177.8901213 105.0815216  97.6841444 177.8560585 103.3095859
  97.6171053 179.4123538 104.1623582 112.1490000 175.6220000  98.9500000
 101.7340000 187.5860000 108.2470000 108.0018435 190.0892258 109.1858018
 106.4726208 190.0983423 109.1858476 105.9079748 188.6763454 109.1849514
 104.3797844 188.6829019 109.1843803 103.8082430 187.2830000 109.1840000
 102.4540000 187.2830000 109.1840000 104.4584269 186.2507992 109.1834242
 101.5470000 188.1870000 106.3890000 101.1759627 188.1866082 107.5224083
 101.1729482 187.5706945 109.1864991 108.3710424 189.5548952 110.0692020
 108.3717372 189.5539623 108.3042715 106.1092267 190.6379011 108.3034328
 106.1081634 190.6379044 110.0683625 106.2741151 188.1324740 110.0639224
 106.2740361 188.1339952 108.3037225 104.0125586 189.2013983 108.2921832
 104.0127875 189.2008719 110.0776810 102.0617631 188.1763881 109.1840000
 110.6800000 178.4210000 122.4900000 112.1297774 185.5222005 123.9161438
 110.6206515 185.4367848 123.8292115 110.0609757 184.5336163 124.9202000
 108.5622477 184.4780210 124.7533451 107.9431405 183.6112373 125.8263042
 106.4368159 183.7431808 125.7517451 105.8190844 182.9420000 124.6030000
 104.2730000 182.9420000 124.6030000 103.6656962 184.3687263 124.6030000
 104.1635752 185.2952788 123.4904628 103.6088467 186.7087891 123.7130727
 104.1163630 187.6722987 122.6450697 103.5644346 189.0834171 122.8658251
 104.0729851 190.0236350 121.7706481 103.5262930 191.4387717 121.9477523
 104.0388686 192.3561607 120.8498111 103.7495855 182.2921111 125.9500708
 104.0684433 183.1100878 127.1944143 103.5263105 182.4704233 128.4688002
 103.9543195 183.3343543 129.6489314 103.4380424 182.8130436 130.9835243
 103.9259724 183.7268103 132.1072741 103.4365095 183.2480681 133.4644484
 103.9243657 184.1590514 134.5783876 103.7181881 182.0713906 123.4366574
 104.0717005 180.5855280 123.3264780 103.6779989 179.6508091 124.4749994
 102.1699551 179.6661187 124.7299279 101.4954240 179.0162166 123.5394070
  99.9870012 179.0869084 123.5480253  99.5068935 178.3913068 122.2765470
  97.9988128 178.3880083 122.1844067 110.2180000 178.6890000 121.5350000
 110.1410455 178.3183397 121.5426543 110.0585611 177.9864972 123.2825043
 112.4249754 185.9236320 124.8918291 112.5651727 184.5202427 123.8264485
 110.3179720 185.0496836 122.8490912 110.1788237 186.4364455 123.9288742
 110.3242239 184.9268512 125.9072884 110.4894698 183.5247144 124.8409043
 108.3053187 184.0927845 123.7665598 108.1488951 185.4960287 124.8243450
 108.2772658 183.9492563 126.8125970 108.2573866 182.5657500 125.7225358
 106.1477068 184.7989578 125.7065596 106.1246052 183.4013389 126.7188530
 106.1393425 181.8989625 124.6523618 106.1333881 183.3444737 123.6352644
 103.9122357 184.8376140 125.5454736 102.5773203 184.2546983 124.5492458
 103.8430002 184.9427926 122.5044638 105.2567742 185.3515951 123.4819587
 103.9129731 187.0685757 124.7041851 102.5125120 186.6792478 123.7006420
 103.8219548 187.3107877 121.6552164 105.2125354 187.7027619 122.6695471
 103.8700479 189.4521915 123.8395016 102.4677292 189.0587877 122.8502742
 103.7765892 189.6368654 120.7893420 105.1690986 190.0482493 121.7923350
 103.8267766 191.8377647 122.9237785 102.4310217 191.4223078 121.9243739
 105.1319208 192.4194951 120.8703196 103.6360697 193.3648999 120.9783585
 103.7358333 191.9918719 119.8623785 104.2040542 181.3009619 126.0311353
 102.6616585 182.1815741 125.8407896 103.6146181 184.1020562 127.1381876
 105.1498946 183.2407973 127.2902741 103.9117371 181.4480534 128.5820741
 102.4314861 182.4060040 128.4215076 103.5915385 184.3593520 129.4994737
 105.0505863 183.3854758 129.6791921 103.7996746 181.7888177 131.1498960
 102.3449449 182.7811222 130.9738867 103.5711845 184.7502742 131.9286315
 105.0214190 183.7628191 132.1041142 103.7907463 182.2271405 133.6521609
 102.3390940 183.2163802 133.4786289 105.0193060 184.1916532 134.6051465
 103.5709239 183.7982630 135.5492081 103.5547895 185.1804461 134.4385654
 104.1310188 182.5022503 122.5203470 102.6329227 182.2232412 123.4199758
 105.1097693 180.4389571 123.0242213 103.5840396 180.2329919 122.4118611
 104.2430450 179.8437473 125.3898266 103.9807210 178.6281249 124.2064305
 101.7955027 180.6894618 124.8749114 101.9388804 179.1206479 125.6514419
 101.8253368 177.9711193 123.4837989 101.8149557 179.4947440 122.6117341
  99.6622828 180.1370481 123.5503643  99.5834417 178.6079961 124.4427257
  99.8781578 177.3596438 122.2593391  99.9237045 178.8921868 121.3937974
  97.5648941 177.8901213 123.0555216  97.6841444 177.8560585 121.2835859
  97.6171053 179.4123538 122.1363582 112.1490000 175.6220000 116.9240000
 101.7340000 187.5860000 126.2210000 108.0018435 190.0892258 127.1598018
 106.4726208 190.0983423 127.1598476 105.9079748 188.6763454 127.1589514
 104.3797844 188.6829019 127.1583803 103.8082430 187.2830000 127.1580000
 102.4540000 187.2830000 127.1580000 104.4584269 186.2507992 127.1574242
 101.5470000 188.1870000 124.3630000 101.1759627 188.1866082 125.4964083
 101.1729482 187.5706945 127.1604991 108.3710424 189.5548952 128.0432020
 108.3717372 189.5539623 126.2782715 106.1092267 190.6379011 126.2774328
 106.1081634 190.6379044 128.0423625 106.2741151 188.1324740 128.0379224
 106.2740361 188.1339952 126.2777225 104.0125586 189.2013983 126.2661832
 104.0127875 189.2008719 128.0516810 102.0617631 188.1763881 127.1580000
 110.6800000 178.4210000 140.4650000 112.1297774 185.5222005 141.8911438
 110.6206515 185.4367848 141.8042115 110.0609757 184.5336163 142.8952000
 108.5622477 184.4780210 142.7283451 107.9431405 183.6112373 143.8013042
 106.4368159 183.7431808 143.7267451 105.8190844 182.9420000 142.5780000
 104.2730000 182.9420000 142.5780000 103.6656962 184.3687263 142.5780000
 104.1635752 185.2952788 141.4654628 103.6088467 186.7087891 141.6880727
 104.1163630 187.6722987 140.6200697 103.5644346 189.0834171 140.8408251
 104.0729851 190.0236350 139.7456481 103.5262930 191.4387717 139.9227523
 104.0388686 192.3561607 138.8248111 103.7495855 182.2921111 143.9250708
 104.0684433 183.1100878 145.1694143 103.5263105 182.4704233 146.4438002
 103.9543195 183.3343543 147.6239314 103.4380424 182.8130436 148.9585243
 103.9259724 183.7268103 150.0822741 103.4365095 183.2480681 151.4394484
 103.9243657 184.1590514 152.5533876 103.7181881 182.0713906 141.4116574
 104.0717005 180.5855280 141.3014780 103.6779989 179.6508091 142.4499994
 102.1699551 179.6661187 142.7049279 101.4954240 179.0162166 141.5144070
  99.9870012 179.0869084 141.5230253  99.5068935 178.3913068 140.2515470
  97.9988128 178.3880083 140.1594067 110.2180000 178.6890000 139.5100000
 110.1410455 178.3183397 139.5176543 110.0585611 177.9864972 141.2575043
 112.4249754 185.9236320 142.8668291 112.5651727 184.5202427 141.8014485
 110.3179720 185.0496836 140.8240912 110.1788237 186.4364455 141.9038742
 110.3242239 184.9268512 143.8822884 110.4894698 183.5247144 142.8159043
 108.3053187 184.0927845 141.7415598 108.1488951 185.4960287 142.7993450
 108.2772658 183.9492563 144.7875970 108.2573866 182.5657500 143.6975358
 106.1477068 184.7989578 143.6815596 106.1246052 183.4013389 144.6938530
 106.1393425 181.8989625 142.6273618 106.1333881 183.3444737 141.6102644
 103.9122357 184.8376140 143.5204736 102.5773203 184.2546983 142.5242458
 103.8430002 184.9427926 140.4794638 105.2567742 185.3515951 141.4569587
 103.9129731 187.0685757 142.6791851 102.5125120 186.6792478 141.6756420
 103.8219548 187.3107877 139.6302164 105.2125354 187.7027619 140.6445471
 103.8700479 189.4521915 141.8145016 102.4677292 189.0587877 140.8252742
 103.7765892 189.6368654 138.7643420 105.1690986 190.0482493 139.7673350
 103.8267766 191.8377647 140.8987785 102.4310217 191.4223078 139.8993739
 105.1319208 192.4194951 138.8453196 103.6360697 193.3648999 138.9533585
 103.7358333 191.9918719 137.8373785 104.2040542 181.3009619 144.0061353
 102.6616585 182.1815741 143.8157896 103.6146181 184.1020562 145.1131876
 105.1498946 183.2407973 145.2652741 103.9117371 181.4480534 146.5570741
 102.4314861 182.4060040 146.3965076 103.5915385 184.3593520 147.4744737
 105.0505863 183.3854758 147.6541921 103.7996746 181.7888177 149.1248960
 102.3449449 182.7811222 148.9488867 103.5711845 184.7502742 149.9036315
 105.0214190 183.7628191 150.0791142 103.7907463 182.2271405 151.6271609
 102.3390940 183.2163802 151.4536289 105.0193060 184.1916532 152.5801465
 103.5709239 183.7982630 153.5242081 103.5547895 185.1804461 152.4135654
 104.1310188 182.5022503 140.4953470 102.6329227 182.2232412 141.3949758
 105.1097693 180.4389571 140.9992213 103.5840396 180.2329919 140.3868611
 104.2430450 179.8437473 143.3648266 103.9807210 178.6281249 142.1814305
 101.7955027 180.6894618 142.8499114 101.9388804 179.1206479 143.6264419
 101.8253368 177.9711193 141.4587989 101.8149557 179.4947440 140.5867341
  99.6622828 180.1370481 141.5253643  99.5834417 178.6079961 142.4177257
  99.8781578 177.3596438 140.2343391  99.9237045 178.8921868 139.3687974
  97.5648941 177.8901213 141.0305216  97.6841444 177.8560585 139.2585859
  97.6171053 179.4123538 140.1113582 112.1490000 175.6220000 134.8990000
 101.7340000 187.5860000 144.1960000 108.0018435 190.0892258 145.1348018
 106.4726208 190.0983423 145.1348476 105.9079748 188.6763454 145.1339514
 104.3797844 188.6829019 145.1333803 103.8082430 187.2830000 145.1330000
 102.4540000 187.2830000 145.1330000 104.4584269 186.2507992 145.1324242
 101.5470000 188.1870000 142.3380000 101.1759627 188.1866082 143.4714083
 101.1729482 187.5706945 145.1354991 108.3710424 189.5548952 146.0182020
 108.3717372 189.5539623 144.2532715 106.1092267 190.6379011 144.2524328
 106.1081634 190.6379044 146.0173625 106.2741151 188.1324740 146.0129224
 106.2740361 188.1339952 144.2527225 104.0125586 189.2013983 144.2411832
 104.0127875 189.2008719 146.0266810 102.0617631 188.1763881 145.1330000
 110.6800000 178.4210000 158.4400000 112.1297774 185.5222005 159.8661438
 110.6206515 185.4367848 159.7792115 110.0609757 184.5336163 160.8702000
 108.5622477 184.4780210 160.7033451 107.9431405 183.6112373 161.7763042
 106.4368159 183.7431808 161.7017451 105.8190844 182.9420000 160.5530000
 104.2730000 182.9420000 160.5530000 103.6656962 184.3687263 160.5530000
 104.1635752 185.2952788 159.4404628 103.6088467 186.7087891 159.6630727
 104.1163630 187.6722987 158.5950697 103.5644346 189.0834171 158.8158251
 104.0729851 190.0236350 157.7206481 103.5262930 191.4387717 157.8977523
 104.0388686 192.3561607 156.7998111 103.7495855 182.2921111 161.9000708
 104.0684433 183.1100878 163.1444143 103.5263105 182.4704233 164.4188002
 103.9543195 183.3343543 165.5989314 103.4380424 182.8130436 166.9335243
 103.9259724 183.7268103 168.0572741 103.4365095 183.2480681 169.4144484
 103.9243657 184.1590514 170.5283876 103.7181881 182.0713906 159.3866574
 104.0717005 180.5855280 159.2764780 103.6779989 179.6508091 160.4249994
 102.1699551 179.6661187 160.6799279 101.4954240 179.0162166 159.4894070
  99.9870012 179.0869084 159.4980253  99.5068935 178.3913068 158.2265470
  97.9988128 178.3880083 158.1344067 110.2180000 178.6890000 157.4850000
 110.1410455 178.3183397 157.4926543 110.0585611 177.9864972 159.2325043
 112.4249754 185.9236320 160.8418291 112.5651727 184.5202427 159.7764485
 110.3179720 185.0496836 158.7990912 110.1788237 186.4364455 159.8788742
 110.3242239 184.9268512 161.8572884 110.4894698 183.5247144 160.7909043
 108.3053187 184.0927845 159.7165598 108.1488951 185.4960287 160.7743450
 108.2772658 183.9492563 162.7625970 108.2573866 182.5657500 161.6725358
 106.1477068 184.7989578 161.6565596 106.1246052 183.4013389 162.6688530
 106.1393425 181.8989625 160.6023618 106.1333881 183.3444737 159.5852644
 103.9122357 184.8376140 161.4954736 102.5773203 184.2546983 160.4992458
 103.8430002 184.9427926 158.4544638 105.2567742 185.3515951 159.4319587
 103.9129731 187.0685757 160.6541851 102.5125120 186.6792478 159.6506420
 103.8219548 187.3107877 157.6052164 105.2125354 187.7027619 158.6195471
 103.8700479 189.4521915 159.7895016 102.4677292 189.0587877 158.8002742
 103.7765892 189.6368654 156.7393420 105.1690986 190.0482493 157.7423350
 103.8267766 191.8377647 158.8737785 102.4310217 191.4223078 157.8743739
 105.1319208 192.4194951 156.8203196 103.6360697 193.3648999 156.9283585
 103.7358333 191.9918719 155.8123785 104.2040542 181.3009619 161.9811353
 102.6616585 182.1815741 161.7907896 103.6146181 184.1020562 163.0881876
 105.1498946 183.2407973 163.2402741 103.9117371 181.4480534 164.5320741
 102.4314861 182.4060040 164.3715076 103.5915385 184.3593520 165.4494737
 105.0505863 183.3854758 165.6291921 103.7996746 181.7888177 167.0998960
 102.3449449 182.7811222 166.9238867 103.5711845 184.7502742 167.8786315
 105.0214190 183.7628191 168.0541142 103.7907463 182.2271405 169.6021609
 102.3390940 183.2163802 169.4286289 105.0193060 184.1916532 170.5551465
 103.5709239 183.7982630 171.4992081 103.5547895 185.1804461 170.3885654
 104.1310188 182.5022503 158.4703470 102.6329227 182.2232412 159.3699758
 105.1097693 180.4389571 158.9742213 103.5840396 180.2329919 158.3618611
 104.2430450 179.8437473 161.3398266 103.9807210 178.6281249 160.1564305
 101.7955027 180.6894618 160.8249114 101.9388804 179.1206479 161.6014419
 101.8253368 177.9711193 159.4337989 101.8149557 179.4947440 158.5617341
  99.6622828 180.1370481 159.5003643  99.5834417 178.6079961 160.3927257
  99.8781578 177.3596438 158.2093391  99.9237045 178.8921868 157.3437974
  97.5648941 177.8901213 159.0055216  97.6841444 177.8560585 157.2335859
  97.6171053 179.4123538 158.0863582 112.1490000 175.6220000 152.8740000
 101.7340000 187.5860000 162.1710000 108.0018435 190.0892258 163.1098018
 106.4726208 190.0983423 163.1098476 105.9079748 188.6763454 163.1089514
 104.3797844 188.6829019 163.1083803 103.8082430 187.2830000 163.1080000
 102.4540000 187.2830000 163.1080000 104.4584269 186.2507992 163.1074242
 101.5470000 188.1870000 160.3130000 101.1759627 188.1866082 161.4464083
 101.1729482 187.5706945 163.1104991 108.3710424 189.5548952 163.9932020
 108.3717372 189.5539623 162.2282715 106.1092267 190.6379011 162.2274328
 106.1081634 190.6379044 163.9923625 106.2741151 188.1324740 163.9879224
 106.2740361 188.1339952 162.2277225 104.0125586 189.2013983 162.2161832
 104.0127875 189.2008719 164.0016810 102.0617631 188.1763881 163.1080000
 110.6800000 178.4210000 176.4150000 112.1297774 185.5222005 177.8411438
 110.6206515 185.4367848 177.7542115 110.0609757 184.5336163 178.8452000
 108.5622477 184.4780210 178.6783451 107.9431405 183.6112373 179.7513042
 106.4368159 183.7431808 179.6767451 105.8190844 182.9420000 178.5280000
 104.2730000 182.9420000 178.5280000 103.6656962 184.3687263 178.5280000
 104.1635752 185.2952788 177.4154628 103.6088467 186.7087891 177.6380727
 104.1163630 187.6722987 176.5700697 103.5644346 189.0834171 176.7908251
 104.0729851 190.0236350 175.6956481 103.5262930 191.4387717 175.8727523
 104.0388686 192.3561607 174.7748111 103.7495855 182.2921111 179.8750708
 104.0684433 183.1100878 181.1194143 103.5263105 182.4704233 182.3938002
 103.9543195 183.3343543 183.5739314 103.4380424 182.8130436 184.9085243
 103.9259724 183.7268103 186.0322741 103.4365095 183.2480681 187.3894484
 103.9243657 184.1590514 188.5033876 103.7181881 182.0713906 177.3616574
 104.0717005 180.5855280 177.2514780 103.6779989 179.6508091 178.3999994
 102.1699551 179.6661187 178.6549279 101.4954240 179.0162166 177.4644070
  99.9870012 179.0869084 177.4730253  99.5068935 178.3913068 176.2015470
  97.9988128 178.3880083 176.1094067 110.2180000 178.6890000 175.4600000
 110.1410455 178.3183397 175.4676543 110.0585611 177.9864972 177.2075043
 112.4249754 185.9236320 178.8168291 112.5651727 184.5202427 177.7514485
 110.3179720 185.0496836 176.7740912 110.1788237 186.4364455 177.8538742
 110.3242239 184.9268512 179.8322884 110.4894698 183.5247144 178.7659043
 108.3053187 184.0927845 177.6915598 108.1488951 185.4960287 178.7493450
 108.2772658 183.9492563 180.7375970 108.2573866 182.5657500 179.6475358
 106.1477068 184.7989578 179.6315596 106.1246052 183.4013389 180.6438530
 106.1393425 181.8989625 178.5773618 106.1333881 183.3444737 177.5602644
 103.9122357 184.8376140 179.4704736 102.5773203 184.2546983 178.4742458
 103.8430002 184.9427926 176.4294638 105.2567742 185.3515951 177.4069587
 103.9129731 187.0685757 178.6291851 102.5125120 186.6792478 177.6256420
 103.8219548 187.3107877 175.5802164 105.2125354 187.7027619 176.5945471
 103.8700479 189.4521915 177.7645016 102.4677292 189.0587877 176.7752742
 103.7765892 189.6368654 174.7143420 105.1690986 190.0482493 175.7173350
 103.8267766 191.8377647 176.8487785 102.4310217 191.4223078 175.8493739
 105.1319208 192.4194951 174.7953196 103.6360697 193.3648999 174.9033585
 103.7358333 191.9918719 173.7873785 104.2040542 181.3009619 179.9561353
 102.6616585 182.1815741 179.7657896 103.6146181 184.1020562 181.0631876
 105.1498946 183.2407973 181.2152741 103.9117371 181.4480534 182.5070741
 102.4314861 182.4060040 182.3465076 103.5915385 184.3593520 183.4244737
 105.0505863 183.3854758 183.6041921 103.7996746 181.7888177 185.0748960
 102.3449449 182.7811222 184.8988867 103.5711845 184.7502742 185.8536315
 105.0214190 183.7628191 186.0291142 103.7907463 182.2271405 187.5771609
 102.3390940 183.2163802 187.4036289 105.0193060 184.1916532 188.5301465
 103.5709239 183.7982630 189.4742081 103.5547895 185.1804461 188.3635654
 104.1310188 182.5022503 176.4453470 102.6329227 182.2232412 177.3449758
 105.1097693 180.4389571 176.9492213 103.5840396 180.2329919 176.3368611
 104.2430450 179.8437473 179.3148266 103.9807210 178.6281249 178.1314305
 101.7955027 180.6894618 178.7999114 101.9388804 179.1206479 179.5764419
 101.8253368 177.9711193 177.4087989 101.8149557 179.4947440 176.5367341
  99.6622828 180.1370481 177.4753643  99.5834417 178.6079961 178.3677257
  99.8781578 177.3596438 176.1843391  99.9237045 178.8921868 175.3187974
  97.5648941 177.8901213 176.9805216  97.6841444 177.8560585 175.2085859
  97.6171053 179.4123538 176.0613582 112.1490000 175.6220000 170.8490000
 101.7340000 187.5860000 180.1460000 108.0018435 190.0892258 181.0848018
 106.4726208 190.0983423 181.0848476 105.9079748 188.6763454 181.0839514
 104.3797844 188.6829019 181.0833803 103.8082430 187.2830000 181.0830000
 102.4540000 187.2830000 181.0830000 104.4584269 186.2507992 181.0824242
 101.5470000 188.1870000 178.2880000 101.1759627 188.1866082 179.4214083
 101.1729482 187.5706945 181.0854991 108.3710424 189.5548952 181.9682020
 108.3717372 189.5539623 180.2032715 106.1092267 190.6379011 180.2024328
 106.1081634 190.6379044 181.9673625 106.2741151 188.1324740 181.9629224
 106.2740361 188.1339952 180.2027225 104.0125586 189.2013983 180.1911832
 104.0127875 189.2008719 181.9766810 102.0617631 188.1763881 181.0830000
 130.8290000  66.7990000  68.5660000 132.2787774  73.9002005  69.9921438
 130.7696515  73.8147848  69.9052115 130.2099757  72.9116163  70.9962000
 128.7112477  72.8560210  70.8293451 128.0921405  71.9892373  71.9023042
 126.5858159  72.1211808  71.8277451 125.9680844  71.3200000  70.6790000
 124.4220000  71.3200000  70.6790000 123.8146962  72.7467263  70.6790000
 124.3125752  73.6732788  69.5664628 123.7578467  75.0867891  69.7890727
 124.2653630  76.0502987  68.7210697 123.7134345  77.4614171  68.9418251
 124.2219850  78.4016350  67.8466482 123.6752930  79.8167717  68.0237523
 124.1878685  80.7341607  66.9258112 123.8985855  70.6701111  72.0260708
 124.2174433  71.4880878  73.2704143 123.6753105  70.8484234  74.5448002
 124.1033195  71.7123543  75.7249314 123.5870424  71.1910436  77.0595243
 124.0749724  72.1048103  78.1832741 123.5855094  71.6260682  79.5404483
 124.0733657  72.5370515  80.6543876 123.8671881  70.4493906  69.5126574
 124.2207005  68.9635280  69.4024780 123.8269989  68.0288091  70.5509994
 122.3189551  68.0441187  70.8059279 121.6444240  67.3942166  69.6154070
 120.1360011  67.4649084  69.6240254 119.6558935  66.7693068  68.3525470
 118.1478128  66.7660083  68.2604067 130.3670000  67.0670000  67.6110000
 130.2900455  66.6963397  67.6186543 130.2075611  66.3644972  69.3585043
 132.5739754  74.3016320  70.9678291 132.7141727  72.8982427  69.9024485
 130.4669720  73.4276836  68.9250912 130.3278237  74.8144455  70.0048742
 130.4732239  73.3048512  71.9832884 130.6384698  71.9027144  70.9169043
 128.4543187  72.4707845  69.8425598 128.2978951  73.8740287  70.9003450
 128.4262658  72.3272563  72.8885970 128.4063866  70.9437500  71.7985358
 126.2967068  73.1769578  71.7825596 126.2736052  71.7793389  72.7948530
 126.2883425  70.2769625  70.7283618 126.2823881  71.7224737  69.7112644
 124.0612357  73.2156140  71.6214736 122.7263203  72.6326983  70.6252458
 123.9920002  73.3207926  68.5804638 125.4057742  73.7295952  69.5579588
 124.0619731  75.4465757  70.7801851 122.6615120  75.0572478  69.7766421
 123.9709548  75.6887877  67.7312164 125.3615354  76.0807619  68.7455471
 124.0190479  77.8301915  69.9155017 122.6167292  77.4367877  68.9262742
 123.9255892  78.0148654  66.8653420 125.3180986  78.4262493  67.8683350
 123.9757766  80.2157647  68.9997785 122.5800217  79.8003078  68.0003739
 125.2809208  80.7974951  66.9463196 123.7850697  81.7428999  67.0543585
 123.8848333  80.3698719  65.9383785 124.3530542  69.6789619  72.1071353
 122.8106585  70.5595741  71.9167896 123.7636181  72.4800562  73.2141875
 125.2988946  71.6187973  73.3662741 124.0607371  69.8260534  74.6580741
 122.5804861  70.7840040  74.4975076 123.7405385  72.7373520  75.5754737
 125.1995863  71.7634758  75.7551921 123.9486746  70.1668178  77.2258960
 122.4939449  71.1591222  77.0498867 123.7201845  73.1282743  78.0046315
 125.1704190  72.1408191  78.1801142 123.9397463  70.6051405  79.7281609
 122.4880939  71.5943802  79.5546289 125.1683060  72.5696533  80.6811465
 123.7199238  72.1762630  81.6252081 123.7037895  73.5584462  80.5145654
 124.2800187  70.8802503  68.5963470 122.7819227  70.6012412  69.4959758
 125.2587693  68.8169571  69.1002213 123.7330396  68.6109919  68.4878611
 124.3920450  68.2217473  71.4658266 124.1297210  67.0061249  70.2824306
 121.9445027  69.0674618  70.9509114 122.0878803  67.4986479  71.7274419
 121.9743367  66.3491193  69.5597990 121.9639557  67.8727440  68.6877341
 119.8112828  68.5150481  69.6263643 119.7324417  66.9859961  70.5187257
 120.0271578  65.7376438  68.3353392 120.0727045  67.2701868  67.4697974
 117.7138941  66.2681213  69.1315216 117.8331443  66.2340585  67.3595859
 117.7661053  67.7903538  68.2123582 132.2980000  64.0000000  63.0000000
 121.8830000  75.9640000  72.2970000 128.1508435  78.4672258  73.2358018
 126.6216208  78.4763423  73.2358476 126.0569748  77.0543454  73.2349514
 124.5287844  77.0609019  73.2343803 123.9572430  75.6610000  73.2340000
 122.6030000  75.6610000  73.2340000 124.6074269  74.6287992  73.2334242
 121.6960000  76.5650000  70.4390000 121.3249627  76.5646082  71.5724083
 121.3219482  75.9486945  73.2364991 128.5200424  77.9328952  74.1192020
 128.5207372  77.9319623  72.3542715 126.2582267  79.0159011  72.3534328
 126.2571634  79.0159044  74.1183625 126.4231151  76.5104740  74.1139224
 126.4230361  76.5119952  72.3537225 124.1615586  77.5793983  72.3421832
 124.1617875  77.5788719  74.1276810 122.2107631  76.5543881  73.2340000
 130.8290000  66.7990000  86.5410000 132.2787774  73.9002005  87.9671438
 130.7696515  73.8147848  87.8802115 130.2099757  72.9116163  88.9712000
 128.7112477  72.8560210  88.8043451 128.0921405  71.9892373  89.8773042
 126.5858159  72.1211808  89.8027451 125.9680844  71.3200000  88.6540000
 124.4220000  71.3200000  88.6540000 123.8146962  72.7467263  88.6540000
 124.3125752  73.6732788  87.5414628 123.7578467  75.0867891  87.7640727
 124.2653630  76.0502987  86.6960697 123.7134345  77.4614171  86.9168251
 124.2219850  78.4016350  85.8216482 123.6752930  79.8167717  85.9987523
 124.1878685  80.7341607  84.9008112 123.8985855  70.6701111  90.0010708
 124.2174433  71.4880878  91.2454143 123.6753105  70.8484234  92.5198002
 124.1033195  71.7123543  93.6999314 123.5870424  71.1910436  95.0345243
 124.0749724  72.1048103  96.1582741 123.5855094  71.6260682  97.5154483
 124.0733657  72.5370515  98.6293876 123.8671881  70.4493906  87.4876574
 124.2207005  68.9635280  87.3774780 123.8269989  68.0288091  88.5259994
 122.3189551  68.0441187  88.7809279 121.6444240  67.3942166  87.5904070
 120.1360011  67.4649084  87.5990254 119.6558935  66.7693068  86.3275470
 118.1478128  66.7660083  86.2354067 130.3670000  67.0670000  85.5860000
 130.2900455  66.6963397  85.5936543 130.2075611  66.3644972  87.3335043
 132.5739754  74.3016320  88.9428291 132.7141727  72.8982427  87.8774485
 130.4669720  73.4276836  86.9000912 130.3278237  74.8144455  87.9798742
 130.4732239  73.3048512  89.9582884 130.6384698  71.9027144  88.8919043
 128.4543187  72.4707845  87.8175598 128.2978951  73.8740287  88.8753450
 128.4262658  72.3272563  90.8635970 128.4063866  70.9437500  89.7735358
 126.2967068  73.1769578  89.7575596 126.2736052  71.7793389  90.7698530
 126.2883425  70.2769625  88.7033618 126.2823881  71.7224737  87.6862644
 124.0612357  73.2156140  89.5964736 122.7263203  72.6326983  88.6002458
 123.9920002  73.3207926  86.5554638 125.4057742  73.7295952  87.5329588
 124.0619731  75.4465757  88.7551851 122.6615120  75.0572478  87.7516421
 123.9709548  75.6887877  85.7062164 125.3615354  76.0807619  86.7205471
 124.0190479  77.8301915  87.8905017 122.6167292  77.4367877  86.9012742
 123.9255892  78.0148654  84.8403420 125.3180986  78.4262493  85.8433350
 123.9757766  80.2157647  86.9747785 122.5800217  79.8003078  85.9753739
 125.2809208  80.7974951  84.9213196 123.7850697  81.7428999  85.0293585
 123.8848333  80.3698719  83.9133785 124.3530542  69.6789619  90.0821353
 122.8106585  70.5595741  89.8917896 123.7636181  72.4800562  91.1891875
 125.2988946  71.6187973  91.3412741 124.0607371  69.8260534  92.6330741
 122.5804861  70.7840040  92.4725076 123.7405385  72.7373520  93.5504737
 125.1995863  71.7634758  93.7301921 123.9486746  70.1668178  95.2008960
 122.4939449  71.1591222  95.0248867 123.7201845  73.1282743  95.9796315
 125.1704190  72.1408191  96.1551142 123.9397463  70.6051405  97.7031609
 122.4880939  71.5943802  97.5296289 125.1683060  72.5696533  98.6561465
 123.7199238  72.1762630  99.6002081 123.7037895  73.5584462  98.4895654
 124.2800187  70.8802503  86.5713470 122.7819227  70.6012412  87.4709758
 125.2587693  68.8169571  87.0752213 123.7330396  68.6109919  86.4628611
 124.3920450  68.2217473  89.4408266 124.1297210  67.0061249  88.2574306
 121.9445027  69.0674618  88.9259114 122.0878803  67.4986479  89.7024419
 121.9743367  66.3491193  87.5347990 121.9639557  67.8727440  86.6627341
 119.8112828  68.5150481  87.6013643 119.7324417  66.9859961  88.4937257
 120.0271578  65.7376438  86.3103392 120.0727045  67.2701868  85.4447974
 117.7138941  66.2681213  87.1065216 117.8331443  66.2340585  85.3345859
 117.7661053  67.7903538  86.1873582 132.2980000  64.0000000  80.9750000
 121.8830000  75.9640000  90.2720000 128.1508435  78.4672258  91.2108018
 126.6216208  78.4763423  91.2108476 126.0569748  77.0543454  91.2099514
 124.5287844  77.0609019  91.2093803 123.9572430  75.6610000  91.2090000
 122.6030000  75.6610000  91.2090000 124.6074269  74.6287992  91.2084242
 121.6960000  76.5650000  88.4140000 121.3249627  76.5646082  89.5474083
 121.3219482  75.9486945  91.2114991 128.5200424  77.9328952  92.0942020
 128.5207372  77.9319623  90.3292715 126.2582267  79.0159011  90.3284328
 126.2571634  79.0159044  92.0933625 126.4231151  76.5104740  92.0889224
 126.4230361  76.5119952  90.3287225 124.1615586  77.5793983  90.3171832
 124.1617875  77.5788719  92.1026810 122.2107631  76.5543881  91.2090000
 130.8290000  66.7990000 104.5160000 132.2787774  73.9002005 105.9421438
 130.7696515  73.8147848 105.8552115 130.2099757  72.9116163 106.9462000
 128.7112477  72.8560210 106.7793451 128.0921405  71.9892373 107.8523042
 126.5858159  72.1211808 107.7777451 125.9680844  71.3200000 106.6290000
 124.4220000  71.3200000 106.6290000 123.8146962  72.7467263 106.6290000
 124.3125752  73.6732788 105.5164628 123.7578467  75.0867891 105.7390727
 124.2653630  76.0502987 104.6710697 123.7134345  77.4614171 104.8918251
 124.2219850  78.4016350 103.7966482 123.6752930  79.8167717 103.9737523
 124.1878685  80.7341607 102.8758112 123.8985855  70.6701111 107.9760708
 124.2174433  71.4880878 109.2204143 123.6753105  70.8484234 110.4948002
 124.1033195  71.7123543 111.6749314 123.5870424  71.1910436 113.0095243
 124.0749724  72.1048103 114.1332741 123.5855094  71.6260682 115.4904483
 124.0733657  72.5370515 116.6043876 123.8671881  70.4493906 105.4626574
 124.2207005  68.9635280 105.3524780 123.8269989  68.0288091 106.5009994
 122.3189551  68.0441187 106.7559279 121.6444240  67.3942166 105.5654070
 120.1360011  67.4649084 105.5740254 119.6558935  66.7693068 104.3025470
 118.1478128  66.7660083 104.2104067 130.3670000  67.0670000 103.5610000
 130.2900455  66.6963397 103.5686543 130.2075611  66.3644972 105.3085043
 132.5739754  74.3016320 106.9178291 132.7141727  72.8982427 105.8524485
 130.4669720  73.4276836 104.8750912 130.3278237  74.8144455 105.9548742
 130.4732239  73.3048512 107.9332884 130.6384698  71.9027144 106.8669043
 128.4543187  72.4707845 105.7925598 128.2978951  73.8740287 106.8503450
 128.4262658  72.3272563 108.8385970 128.4063866  70.9437500 107.7485358
 126.2967068  73.1769578 107.7325596 126.2736052  71.7793389 108.7448530
 126.2883425  70.2769625 106.6783618 126.2823881  71.7224737 105.6612644
 124.0612357  73.2156140 107.5714736 122.7263203  72.6326983 106.5752458
 123.9920002  73.3207926 104.5304638 125.4057742  73.7295952 105.5079588
 124.0619731  75.4465757 106.7301851 122.6615120  75.0572478 105.7266421
 123.9709548  75.6887877 103.6812164 125.3615354  76.0807619 104.6955471
 124.0190479  77.8301915 105.8655017 122.6167292  77.4367877 104.8762742
 123.9255892  78.0148654 102.8153420 125.3180986  78.4262493 103.8183350
 123.9757766  80.2157647 104.9497785 122.5800217  79.8003078 103.9503739
 125.2809208  80.7974951 102.8963196 123.7850697  81.7428999 103.0043585
 123.8848333  80.3698719 101.8883785 124.3530542  69.6789619 108.0571353
 122.8106585  70.5595741 107.8667896 123.7636181  72.4800562 109.1641875
 125.2988946  71.6187973 109.3162741 124.0607371  69.8260534 110.6080741
 122.5804861  70.7840040 110.4475076 123.7405385  72.7373520 111.5254737
 125.1995863  71.7634758 111.7051921 123.9486746  70.1668178 113.1758960
 122.4939449  71.1591222 112.9998867 123.7201845  73.1282743 113.9546315
 125.1704190  72.1408191 114.1301142 123.9397463  70.6051405 115.6781609
 122.4880939  71.5943802 115.5046289 125.1683060  72.5696533 116.6311465
 123.7199238  72.1762630 117.5752081 123.7037895  73.5584462 116.4645654
 124.2800187  70.8802503 104.5463470 122.7819227  70.6012412 105.4459758
 125.2587693  68.8169571 105.0502213 123.7330396  68.6109919 104.4378611
 124.3920450  68.2217473 107.4158266 124.1297210  67.0061249 106.2324306
 121.9445027  69.0674618 106.9009114 122.0878803  67.4986479 107.6774419
 121.9743367  66.3491193 105.5097990 121.9639557  67.8727440 104.6377341
 119.8112828  68.5150481 105.5763643 119.7324417  66.9859961 106.4687257
 120.0271578  65.7376438 104.2853392 120.0727045  67.2701868 103.4197974
 117.7138941  66.2681213 105.0815216 117.8331443  66.2340585 103.3095859
 117.7661053  67.7903538 104.1623582 132.2980000  64.0000000  98.9500000
 121.8830000  75.9640000 108.2470000 128.1508435  78.4672258 109.1858018
 126.6216208  78.4763423 109.1858476 126.0569748  77.0543454 109.1849514
 124.5287844  77.0609019 109.1843803 123.9572430  75.6610000 109.1840000
 122.6030000  75.6610000 109.1840000 124.6074269  74.6287992 109.1834242
 121.6960000  76.5650000 106.3890000 121.3249627  76.5646082 107.5224083
 121.3219482  75.9486945 109.1864991 128.5200424  77.9328952 110.0692020
 128.5207372  77.9319623 108.3042715 126.2582267  79.0159011 108.3034328
 126.2571634  79.0159044 110.0683625 126.4231151  76.5104740 110.0639224
 126.4230361  76.5119952 108.3037225 124.1615586  77.5793983 108.2921832
 124.1617875  77.5788719 110.0776810 122.2107631  76.5543881 109.1840000
 130.8290000  66.7990000 122.4900000 132.2787774  73.9002005 123.9161438
 130.7696515  73.8147848 123.8292115 130.2099757  72.9116163 124.9202000
 128.7112477  72.8560210 124.7533451 128.0921405  71.9892373 125.8263042
 126.5858159  72.1211808 125.7517451 125.9680844  71.3200000 124.6030000
 124.4220000  71.3200000 124.6030000 123.8146962  72.7467263 124.6030000
 124.3125752  73.6732788 123.4904628 123.7578467  75.0867891 123.7130727
 124.2653630  76.0502987 122.6450697 123.7134345  77.4614171 122.8658251
 124.2219850  78.4016350 121.7706482 123.6752930  79.8167717 121.9477523
 124.1878685  80.7341607 120.8498112 123.8985855  70.6701111 125.9500708
 124.2174433  71.4880878 127.1944143 123.6753105  70.8484234 128.4688002
 124.1033195  71.7123543 129.6489314 123.5870424  71.1910436 130.9835243
 124.0749724  72.1048103 132.1072741 123.5855094  71.6260682 133.4644483
 124.0733657  72.5370515 134.5783876 123.8671881  70.4493906 123.4366574
 124.2207005  68.9635280 123.3264780 123.8269989  68.0288091 124.4749994
 122.3189551  68.0441187 124.7299279 121.6444240  67.3942166 123.5394070
 120.1360011  67.4649084 123.5480254 119.6558935  66.7693068 122.2765470
 118.1478128  66.7660083 122.1844067 130.3670000  67.0670000 121.5350000
 130.2900455  66.6963397 121.5426543 130.2075611  66.3644972 123.2825043
 132.5739754  74.3016320 124.8918291 132.7141727  72.8982427 123.8264485
 130.4669720  73.4276836 122.8490912 130.3278237  74.8144455 123.9288742
 130.4732239  73.3048512 125.9072884 130.6384698  71.9027144 124.8409043
 128.4543187  72.4707845 123.7665598 128.2978951  73.8740287 124.8243450
 128.4262658  72.3272563 126.8125970 128.4063866  70.9437500 125.7225358
 126.2967068  73.1769578 125.7065596 126.2736052  71.7793389 126.7188530
 126.2883425  70.2769625 124.6523618 126.2823881  71.7224737 123.6352644
 124.0612357  73.2156140 125.5454736 122.7263203  72.6326983 124.5492458
 123.9920002  73.3207926 122.5044638 125.4057742  73.7295952 123.4819588
 124.0619731  75.4465757 124.7041851 122.6615120  75.0572478 123.7006421
 123.9709548  75.6887877 121.6552164 125.3615354  76.0807619 122.6695471
 124.0190479  77.8301915 123.8395017 122.6167292  77.4367877 122.8502742
 123.9255892  78.0148654 120.7893420 125.3180986  78.4262493 121.7923350
 123.9757766  80.2157647 122.9237785 122.5800217  79.8003078 121.9243739
 125.2809208  80.7974951 120.8703196 123.7850697  81.7428999 120.9783585
 123.8848333  80.3698719 119.8623785 124.3530542  69.6789619 126.0311353
 122.8106585  70.5595741 125.8407896 123.7636181  72.4800562 127.1381875
 125.2988946  71.6187973 127.2902741 124.0607371  69.8260534 128.5820741
 122.5804861  70.7840040 128.4215076 123.7405385  72.7373520 129.4994737
 125.1995863  71.7634758 129.6791921 123.9486746  70.1668178 131.1498960
 122.4939449  71.1591222 130.9738867 123.7201845  73.1282743 131.9286315
 125.1704190  72.1408191 132.1041142 123.9397463  70.6051405 133.6521609
 122.4880939  71.5943802 133.4786289 125.1683060  72.5696533 134.6051465
 123.7199238  72.1762630 135.5492081 123.7037895  73.5584462 134.4385654
 124.2800187  70.8802503 122.5203470 122.7819227  70.6012412 123.4199758
 125.2587693  68.8169571 123.0242213 123.7330396  68.6109919 122.4118611
 124.3920450  68.2217473 125.3898266 124.1297210  67.0061249 124.2064306
 121.9445027  69.0674618 124.8749114 122.0878803  67.4986479 125.6514419
 121.9743367  66.3491193 123.4837990 121.9639557  67.8727440 122.6117341
 119.8112828  68.5150481 123.5503643 119.7324417  66.9859961 124.4427257
 120.0271578  65.7376438 122.2593392 120.0727045  67.2701868 121.3937974
 117.7138941  66.2681213 123.0555216 117.8331443  66.2340585 121.2835859
 117.7661053  67.7903538 122.1363582 132.2980000  64.0000000 116.9240000
 121.8830000  75.9640000 126.2210000 128.1508435  78.4672258 127.1598018
 126.6216208  78.4763423 127.1598476 126.0569748  77.0543454 127.1589514
 124.5287844  77.0609019 127.1583803 123.9572430  75.6610000 127.1580000
 122.6030000  75.6610000 127.1580000 124.6074269  74.6287992 127.1574242
 121.6960000  76.5650000 124.3630000 121.3249627  76.5646082 125.4964083
 121.3219482  75.9486945 127.1604991 128.5200424  77.9328952 128.0432020
 128.5207372  77.9319623 126.2782715 126.2582267  79.0159011 126.2774328
 126.2571634  79.0159044 128.0423625 126.4231151  76.5104740 128.0379224
 126.4230361  76.5119952 126.2777225 124.1615586  77.5793983 126.2661832
 124.1617875  77.5788719 128.0516810 122.2107631  76.5543881 127.1580000
 130.8290000  66.7990000 140.4650000 132.2787774  73.9002005 141.8911438
 130.7696515  73.8147848 141.8042115 130.2099757  72.9116163 142.8952000
 128.7112477  72.8560210 142.7283451 128.0921405  71.9892373 143.8013042
 126.5858159  72.1211808 143.7267451 125.9680844  71.3200000 142.5780000
 124.4220000  71.3200000 142.5780000 123.8146962  72.7467263 142.5780000
 124.3125752  73.6732788 141.4654628 123.7578467  75.0867891 141.6880727
 124.2653630  76.0502987 140.6200697 123.7134345  77.4614171 140.8408251
 124.2219850  78.4016350 139.7456482 123.6752930  79.8167717 139.9227523
 124.1878685  80.7341607 138.8248112 123.8985855  70.6701111 143.9250708
 124.2174433  71.4880878 145.1694143 123.6753105  70.8484234 146.4438002
 124.1033195  71.7123543 147.6239314 123.5870424  71.1910436 148.9585243
 124.0749724  72.1048103 150.0822741 123.5855094  71.6260682 151.4394483
 124.0733657  72.5370515 152.5533876 123.8671881  70.4493906 141.4116574
 124.2207005  68.9635280 141.3014780 123.8269989  68.0288091 142.4499994
 122.3189551  68.0441187 142.7049279 121.6444240  67.3942166 141.5144070
 120.1360011  67.4649084 141.5230254 119.6558935  66.7693068 140.2515470
 118.1478128  66.7660083 140.1594067 130.3670000  67.0670000 139.5100000
 130.2900455  66.6963397 139.5176543 130.2075611  66.3644972 141.2575043
 132.5739754  74.3016320 142.8668291 132.7141727  72.8982427 141.8014485
 130.4669720  73.4276836 140.8240912 130.3278237  74.8144455 141.9038742
 130.4732239  73.3048512 143.8822884 130.6384698  71.9027144 142.8159043
 128.4543187  72.4707845 141.7415598 128.2978951  73.8740287 142.7993450
 128.4262658  72.3272563 144.7875970 128.4063866  70.9437500 143.6975358
 126.2967068  73.1769578 143.6815596 126.2736052  71.7793389 144.6938530
 126.2883425  70.2769625 142.6273618 126.2823881  71.7224737 141.6102644
 124.0612357  73.2156140 143.5204736 122.7263203  72.6326983 142.5242458
 123.9920002  73.3207926 140.4794638 125.4057742  73.7295952 141.4569588
 124.0619731  75.4465757 142.6791851 122.6615120  75.0572478 141.6756421
 123.9709548  75.6887877 139.6302164 125.3615354  76.0807619 140.6445471
 124.0190479  77.8301915 141.8145017 122.6167292  77.4367877 140.8252742
 123.9255892  78.0148654 138.7643420 125.3180986  78.4262493 139.7673350
 123.9757766  80.2157647 140.8987785 122.5800217  79.8003078 139.8993739
 125.2809208  80.7974951 138.8453196 123.7850697  81.7428999 138.9533585
 123.8848333  80.3698719 137.8373785 124.3530542  69.6789619 144.0061353
 122.8106585  70.5595741 143.8157896 123.7636181  72.4800562 145.1131875
 125.2988946  71.6187973 145.2652741 124.0607371  69.8260534 146.5570741
 122.5804861  70.7840040 146.3965076 123.7405385  72.7373520 147.4744737
 125.1995863  71.7634758 147.6541921 123.9486746  70.1668178 149.1248960
 122.4939449  71.1591222 148.9488867 123.7201845  73.1282743 149.9036315
 125.1704190  72.1408191 150.0791142 123.9397463  70.6051405 151.6271609
 122.4880939  71.5943802 151.4536289 125.1683060  72.5696533 152.5801465
 123.7199238  72.1762630 153.5242081 123.7037895  73.5584462 152.4135654
 124.2800187  70.8802503 140.4953470 122.7819227  70.6012412 141.3949758
 125.2587693  68.8169571 140.9992213 123.7330396  68.6109919 140.3868611
 124.3920450  68.2217473 143.3648266 124.1297210  67.0061249 142.1814306
 121.9445027  69.0674618 142.8499114 122.0878803  67.4986479 143.6264419
 121.9743367  66.3491193 141.4587990 121.9639557  67.8727440 140.5867341
 119.8112828  68.5150481 141.5253643 119.7324417  66.9859961 142.4177257
 120.0271578  65.7376438 140.2343392 120.0727045  67.2701868 139.3687974
 117.7138941  66.2681213 141.0305216 117.8331443  66.2340585 139.2585859
 117.7661053  67.7903538 140.1113582 132.2980000  64.0000000 134.8990000
 121.8830000  75.9640000 144.1960000 128.1508435  78.4672258 145.1348018
 126.6216208  78.4763423 145.1348476 126.0569748  77.0543454 145.1339514
 124.5287844  77.0609019 145.1333803 123.9572430  75.6610000 145.1330000
 122.6030000  75.6610000 145.1330000 124.6074269  74.6287992 145.1324242
 121.6960000  76.5650000 142.3380000 121.3249627  76.5646082 143.4714083
 121.3219482  75.9486945 145.1354991 128.5200424  77.9328952 146.0182020
 128.5207372  77.9319623 144.2532715 126.2582267  79.0159011 144.2524328
 126.2571634  79.0159044 146.0173625 126.4231151  76.5104740 146.0129224
 126.4230361  76.5119952 144.2527225 124.1615586  77.5793983 144.2411832
 124.1617875  77.5788719 146.0266810 122.2107631  76.5543881 145.1330000
 130.8290000  66.7990000 158.4400000 132.2787774  73.9002005 159.8661438
 130.7696515  73.8147848 159.7792115 130.2099757  72.9116163 160.8702000
 128.7112477  72.8560210 160.7033451 128.0921405  71.9892373 161.7763042
 126.5858159  72.1211808 161.7017451 125.9680844  71.3200000 160.5530000
 124.4220000  71.3200000 160.5530000 123.8146962  72.7467263 160.5530000
 124.3125752  73.6732788 159.4404628 123.7578467  75.0867891 159.6630727
 124.2653630  76.0502987 158.5950697 123.7134345  77.4614171 158.8158251
 124.2219850  78.4016350 157.7206482 123.6752930  79.8167717 157.8977523
 124.1878685  80.7341607 156.7998112 123.8985855  70.6701111 161.9000708
 124.2174433  71.4880878 163.1444143 123.6753105  70.8484234 164.4188002
 124.1033195  71.7123543 165.5989314 123.5870424  71.1910436 166.9335243
 124.0749724  72.1048103 168.0572741 123.5855094  71.6260682 169.4144483
 124.0733657  72.5370515 170.5283876 123.8671881  70.4493906 159.3866574
 124.2207005  68.9635280 159.2764780 123.8269989  68.0288091 160.4249994
 122.3189551  68.0441187 160.6799279 121.6444240  67.3942166 159.4894070
 120.1360011  67.4649084 159.4980254 119.6558935  66.7693068 158.2265470
 118.1478128  66.7660083 158.1344067 130.3670000  67.0670000 157.4850000
 130.2900455  66.6963397 157.4926543 130.2075611  66.3644972 159.2325043
 132.5739754  74.3016320 160.8418291 132.7141727  72.8982427 159.7764485
 130.4669720  73.4276836 158.7990912 130.3278237  74.8144455 159.8788742
 130.4732239  73.3048512 161.8572884 130.6384698  71.9027144 160.7909043
 128.4543187  72.4707845 159.7165598 128.2978951  73.8740287 160.7743450
 128.4262658  72.3272563 162.7625970 128.4063866  70.9437500 161.6725358
 126.2967068  73.1769578 161.6565596 126.2736052  71.7793389 162.6688530
 126.2883425  70.2769625 160.6023618 126.2823881  71.7224737 159.5852644
 124.0612357  73.2156140 161.4954736 122.7263203  72.6326983 160.4992458
 123.9920002  73.3207926 158.4544638 125.4057742  73.7295952 159.4319588
 124.0619731  75.4465757 160.6541851 122.6615120  75.0572478 159.6506421
 123.9709548  75.6887877 157.6052164 125.3615354  76.0807619 158.6195471
 124.0190479  77.8301915 159.7895017 122.6167292  77.4367877 158.8002742
 123.9255892  78.0148654 156.7393420 125.3180986  78.4262493 157.7423350
 123.9757766  80.2157647 158.8737785 122.5800217  79.8003078 157.8743739
 125.2809208  80.7974951 156.8203196 123.7850697  81.7428999 156.9283585
 123.8848333  80.3698719 155.8123785 124.3530542  69.6789619 161.9811353
 122.8106585  70.5595741 161.7907896 123.7636181  72.4800562 163.0881875
 125.2988946  71.6187973 163.2402741 124.0607371  69.8260534 164.5320741
 122.5804861  70.7840040 164.3715076 123.7405385  72.7373520 165.4494737
 125.1995863  71.7634758 165.6291921 123.9486746  70.1668178 167.0998960
 122.4939449  71.1591222 166.9238867 123.7201845  73.1282743 167.8786315
 125.1704190  72.1408191 168.0541142 123.9397463  70.6051405 169.6021609
 122.4880939  71.5943802 169.4286289 125.1683060  72.5696533 170.5551465
 123.7199238  72.1762630 171.4992081 123.7037895  73.5584462 170.3885654
 124.2800187  70.8802503 158.4703470 122.7819227  70.6012412 159.3699758
 125.2587693  68.8169571 158.9742213 123.7330396  68.6109919 158.3618611
 124.3920450  68.2217473 161.3398266 124.1297210  67.0061249 160.1564306
 121.9445027  69.0674618 160.8249114 122.0878803  67.4986479 161.6014419
 121.9743367  66.3491193 159.4337990 121.9639557  67.8727440 158.5617341
 119.8112828  68.5150481 159.5003643 119.7324417  66.9859961 160.3927257
 120.0271578  65.7376438 158.2093392 120.0727045  67.2701868 157.3437974
 117.7138941  66.2681213 159.0055216 117.8331443  66.2340585 157.2335859
 117.7661053  67.7903538 158.0863582 132.2980000  64.0000000 152.8740000
 121.8830000  75.9640000 162.1710000 128.1508435  78.4672258 163.1098018
 126.6216208  78.4763423 163.1098476 126.0569748  77.0543454 163.1089514
 124.5287844  77.0609019 163.1083803 123.9572430  75.6610000 163.1080000
 122.6030000  75.6610000 163.1080000 124.6074269  74.6287992 163.1074242
 121.6960000  76.5650000 160.3130000 121.3249627  76.5646082 161.4464083
 121.3219482  75.9486945 163.1104991 128.5200424  77.9328952 163.9932020
 128.5207372  77.9319623 162.2282715 126.2582267  79.0159011 162.2274328
 126.2571634  79.0159044 163.9923625 126.4231151  76.5104740 163.9879224
 126.4230361  76.5119952 162.2277225 124.1615586  77.5793983 162.2161832
 124.1617875  77.5788719 164.0016810 122.2107631  76.5543881 163.1080000
 130.8290000  66.7990000 176.4150000 132.2787774  73.9002005 177.8411438
 130.7696515  73.8147848 177.7542115 130.2099757  72.9116163 178.8452000
 128.7112477  72.8560210 178.6783451 128.0921405  71.9892373 179.7513042
 126.5858159  72.1211808 179.6767451 125.9680844  71.3200000 178.5280000
 124.4220000  71.3200000 178.5280000 123.8146962  72.7467263 178.5280000
 124.3125752  73.6732788 177.4154628 123.7578467  75.0867891 177.6380727
 124.2653630  76.0502987 176.5700697 123.7134345  77.4614171 176.7908251
 124.2219850  78.4016350 175.6956482 123.6752930  79.8167717 175.8727523
 124.1878685  80.7341607 174.7748112 123.8985855  70.6701111 179.8750708
 124.2174433  71.4880878 181.1194143 123.6753105  70.8484234 182.3938002
 124.1033195  71.7123543 183.5739314 123.5870424  71.1910436 184.9085243
 124.0749724  72.1048103 186.0322741 123.5855094  71.6260682 187.3894483
 124.0733657  72.5370515 188.5033876 123.8671881  70.4493906 177.3616574
 124.2207005  68.9635280 177.2514780 123.8269989  68.0288091 178.3999994
 122.3189551  68.0441187 178.6549279 121.6444240  67.3942166 177.4644070
 120.1360011  67.4649084 177.4730254 119.6558935  66.7693068 176.2015470
 118.1478128  66.7660083 176.1094067 130.3670000  67.0670000 175.4600000
 130.2900455  66.6963397 175.4676543 130.2075611  66.3644972 177.2075043
 132.5739754  74.3016320 178.8168291 132.7141727  72.8982427 177.7514485
 130.4669720  73.4276836 176.7740912 130.3278237  74.8144455 177.8538742
 130.4732239  73.3048512 179.8322884 130.6384698  71.9027144 178.7659043
 128.4543187  72.4707845 177.6915598 128.2978951  73.8740287 178.7493450
 128.4262658  72.3272563 180.7375970 128.4063866  70.9437500 179.6475358
 126.2967068  73.1769578 179.6315596 126.2736052  71.7793389 180.6438530
 126.2883425  70.2769625 178.5773618 126.2823881  71.7224737 177.5602644
 124.0612357  73.2156140 179.4704736 122.7263203  72.6326983 178.4742458
 123.9920002  73.3207926 176.4294638 125.4057742  73.7295952 177.4069588
 124.0619731  75.4465757 178.6291851 122.6615120  75.0572478 177.6256421
 123.9709548  75.6887877 175.5802164 125.3615354  76.0807619 176.5945471
 124.0190479  77.8301915 177.7645017 122.6167292  77.4367877 176.7752742
 123.9255892  78.0148654 174.7143420 125.3180986  78.4262493 175.7173350
 123.9757766  80.2157647 176.8487785 122.5800217  79.8003078 175.8493739
 125.2809208  80.7974951 174.7953196 123.7850697  81.7428999 174.9033585
 123.8848333  80.3698719 173.7873785 124.3530542  69.6789619 179.9561353
 122.8106585  70.5595741 179.7657896 123.7636181  72.4800562 181.0631875
 125.2988946  71.6187973 181.2152741 124.0607371  69.8260534 182.5070741
 122.5804861  70.7840040 182.3465076 123.7405385  72.7373520 183.4244737
 125.1995863  71.7634758 183.6041921 123.9486746  70.1668178 185.0748960
 122.4939449  71.1591222 184.8988867 123.7201845  73.1282743 185.8536315
 125.1704190  72.1408191 186.0291142 123.9397463  70.6051405 187.5771609
 122.4880939  71.5943802 187.4036289 125.1683060  72.5696533 188.5301465
 123.7199238  72.1762630 189.4742081 123.7037895  73.5584462 188.3635654
 124.2800187  70.8802503 176.4453470 122.7819227  70.6012412 177.3449758
 125.2587693  68.8169571 176.9492213 123.7330396  68.6109919 176.3368611
 124.3920450  68.2217473 179.3148266 124.1297210  67.0061249 178.1314306
 121.9445027  69.0674618 178.7999114 122.0878803  67.4986479 179.5764419
 121.9743367  66.3491193 177.4087990 121.9639557  67.8727440 176.5367341
 119.8112828  68.5150481 177.4753643 119.7324417  66.9859961 178.3677257
 120.0271578  65.7376438 176.1843392 120.0727045  67.2701868 175.3187974
 117.7138941  66.2681213 176.9805216 117.8331443  66.2340585 175.2085859
 117.7661053  67.7903538 176.0613582 132.2980000  64.0000000 170.8490000
 121.8830000  75.9640000 180.1460000 128.1508435  78.4672258 181.0848018
 126.6216208  78.4763423 181.0848476 126.0569748  77.0543454 181.0839514
 124.5287844  77.0609019 181.0833803 123.9572430  75.6610000 181.0830000
 122.6030000  75.6610000 181.0830000 124.6074269  74.6287992 181.0824242
 121.6960000  76.5650000 178.2880000 121.3249627  76.5646082 179.4214083
 121.3219482  75.9486945 181.0854991 128.5200424  77.9328952 181.9682020
 128.5207372  77.9319623 180.2032715 126.2582267  79.0159011 180.2024328
 126.2571634  79.0159044 181.9673625 126.4231151  76.5104740 181.9629224
 126.4230361  76.5119952 180.2027225 124.1615586  77.5793983 180.1911832
 124.1617875  77.5788719 181.9766810 122.2107631  76.5543881 181.0830000
 130.8290000  85.4030000  68.5660000 132.2787774  92.5042005  69.9921438
 130.7696515  92.4187848  69.9052115 130.2099757  91.5156163  70.9962000
 128.7112477  91.4600210  70.8293451 128.0921405  90.5932373  71.9023042
 126.5858159  90.7251808  71.8277451 125.9680844  89.9240000  70.6790000
 124.4220000  89.9240000  70.6790000 123.8146962  91.3507263  70.6790000
 124.3125752  92.2772788  69.5664628 123.7578467  93.6907891  69.7890727
 124.2653630  94.6542987  68.7210697 123.7134345  96.0654171  68.9418251
 124.2219850  97.0056350  67.8466482 123.6752930  98.4207717  68.0237523
 124.1878685  99.3381607  66.9258112 123.8985855  89.2741111  72.0260708
 124.2174433  90.0920878  73.2704143 123.6753105  89.4524234  74.5448002
 124.1033195  90.3163543  75.7249314 123.5870424  89.7950436  77.0595243
 124.0749724  90.7088103  78.1832741 123.5855094  90.2300682  79.5404483
 124.0733657  91.1410515  80.6543876 123.8671881  89.0533906  69.5126574
 124.2207005  87.5675280  69.4024780 123.8269989  86.6328091  70.5509994
 122.3189551  86.6481187  70.8059279 121.6444240  85.9982166  69.6154070
 120.1360011  86.0689084  69.6240254 119.6558935  85.3733068  68.3525470
 118.1478128  85.3700083  68.2604067 130.3670000  85.6710000  67.6110000
 130.2900455  85.3003397  67.6186543 130.2075611  84.9684972  69.3585043
 132.5739754  92.9056320  70.9678291 132.7141727  91.5022427  69.9024485
 130.4669720  92.0316836  68.9250912 130.3278237  93.4184455  70.0048742
 130.4732239  91.9088512  71.9832884 130.6384698  90.5067144  70.9169043
 128.4543187  91.0747845  69.8425598 128.2978951  92.4780287  70.9003450
 128.4262658  90.9312563  72.8885970 128.4063866  89.5477500  71.7985358
 126.2967068  91.7809578  71.7825596 126.2736052  90.3833389  72.7948530
 126.2883425  88.8809625  70.7283618 126.2823881  90.3264737  69.7112644
 124.0612357  91.8196140  71.6214736 122.7263203  91.2366983  70.6252458
 123.9920002  91.9247926  68.5804638 125.4057742  92.3335952  69.5579588
 124.0619731  94.0505757  70.7801851 122.6615120  93.6612478  69.7766421
 123.9709548  94.2927877  67.7312164 125.3615354  94.6847619  68.7455471
 124.0190479  96.4341915  69.9155017 122.6167292  96.0407877  68.9262742
 123.9255892  96.6188654  66.8653420 125.3180986  97.0302493  67.8683350
 123.9757766  98.8197647  68.9997785 122.5800217  98.4043078  68.0003739
 125.2809208  99.4014951  66.9463196 123.7850697 100.3468999  67.0543585
 123.8848333  98.9738719  65.9383785 124.3530542  88.2829619  72.1071353
 122.8106585  89.1635741  71.9167896 123.7636181  91.0840562  73.2141875
 125.2988946  90.2227973  73.3662741 124.0607371  88.4300534  74.6580741
 122.5804861  89.3880040  74.4975076 123.7405385  91.3413520  75.5754737
 125.1995863  90.3674758  75.7551921 123.9486746  88.7708178  77.2258960
 122.4939449  89.7631222  77.0498867 123.7201845  91.7322743  78.0046315
 125.1704190  90.7448191  78.1801142 123.9397463  89.2091405  79.7281609
 122.4880939  90.1983802  79.5546289 125.1683060  91.1736533  80.6811465
 123.7199238  90.7802630  81.6252081 123.7037895  92.1624462  80.5145654
 124.2800187  89.4842503  68.5963470 122.7819227  89.2052412  69.4959758
 125.2587693  87.4209571  69.1002213 123.7330396  87.2149919  68.4878611
 124.3920450  86.8257473  71.4658266 124.1297210  85.6101249  70.2824306
 121.9445027  87.6714618  70.9509114 122.0878803  86.1026479  71.7274419
 121.9743367  84.9531193  69.5597990 121.9639557  86.4767440  68.6877341
 119.8112828  87.1190481  69.6263643 119.7324417  85.5899961  70.5187257
 120.0271578  84.3416438  68.3353392 120.0727045  85.8741868  67.4697974
 117.7138941  84.8721213  69.1315216 117.8331443  84.8380585  67.3595859
 117.7661053  86.3943538  68.2123582 132.2980000  82.6040000  63.0000000
 121.8830000  94.5680000  72.2970000 128.1508435  97.0712258  73.2358018
 126.6216208  97.0803423  73.2358476 126.0569748  95.6583454  73.2349514
 124.5287844  95.6649019  73.2343803 123.9572430  94.2650000  73.2340000
 122.6030000  94.2650000  73.2340000 124.6074269  93.2327992  73.2334242
 121.6960000  95.1690000  70.4390000 121.3249627  95.1686082  71.5724083
 121.3219482  94.5526945  73.2364991 128.5200424  96.5368952  74.1192020
 128.5207372  96.5359623  72.3542715 126.2582267  97.6199011  72.3534328
 126.2571634  97.6199044  74.1183625 126.4231151  95.1144740  74.1139224
 126.4230361  95.1159952  72.3537225 124.1615586  96.1833983  72.3421832
 124.1617875  96.1828719  74.1276810 122.2107631  95.1583881  73.2340000
 130.8290000  85.4030000  86.5410000 132.2787774  92.5042005  87.9671438
 130.7696515  92.4187848  87.8802115 130.2099757  91.5156163  88.9712000
 128.7112477  91.4600210  88.8043451 128.0921405  90.5932373  89.8773042
 126.5858159  90.7251808  89.8027451 125.9680844  89.9240000  88.6540000
 124.4220000  89.9240000  88.6540000 123.8146962  91.3507263  88.6540000
 124.3125752  92.2772788  87.5414628 123.7578467  93.6907891  87.7640727
 124.2653630  94.6542987  86.6960697 123.7134345  96.0654171  86.9168251
 124.2219850  97.0056350  85.8216482 123.6752930  98.4207717  85.9987523
 124.1878685  99.3381607  84.9008112 123.8985855  89.2741111  90.0010708
 124.2174433  90.0920878  91.2454143 123.6753105  89.4524234  92.5198002
 124.1033195  90.3163543  93.6999314 123.5870424  89.7950436  95.0345243
 124.0749724  90.7088103  96.1582741 123.5855094  90.2300682  97.5154483
 124.0733657  91.1410515  98.6293876 123.8671881  89.0533906  87.4876574
 124.2207005  87.5675280  87.3774780 123.8269989  86.6328091  88.5259994
 122.3189551  86.6481187  88.7809279 121.6444240  85.9982166  87.5904070
 120.1360011  86.0689084  87.5990254 119.6558935  85.3733068  86.3275470
 118.1478128  85.3700083  86.2354067 130.3670000  85.6710000  85.5860000
 130.2900455  85.3003397  85.5936543 130.2075611  84.9684972  87.3335043
 132.5739754  92.9056320  88.9428291 132.7141727  91.5022427  87.8774485
 130.4669720  92.0316836  86.9000912 130.3278237  93.4184455  87.9798742
 130.4732239  91.9088512  89.9582884 130.6384698  90.5067144  88.8919043
 128.4543187  91.0747845  87.8175598 128.2978951  92.4780287  88.8753450
 128.4262658  90.9312563  90.8635970 128.4063866  89.5477500  89.7735358
 126.2967068  91.7809578  89.7575596 126.2736052  90.3833389  90.7698530
 126.2883425  88.8809625  88.7033618 126.2823881  90.3264737  87.6862644
 124.0612357  91.8196140  89.5964736 122.7263203  91.2366983  88.6002458
 123.9920002  91.9247926  86.5554638 125.4057742  92.3335952  87.5329588
 124.0619731  94.0505757  88.7551851 122.6615120  93.6612478  87.7516421
 123.9709548  94.2927877  85.7062164 125.3615354  94.6847619  86.7205471
 124.0190479  96.4341915  87.8905017 122.6167292  96.0407877  86.9012742
 123.9255892  96.6188654  84.8403420 125.3180986  97.0302493  85.8433350
 123.9757766  98.8197647  86.9747785 122.5800217  98.4043078  85.9753739
 125.2809208  99.4014951  84.9213196 123.7850697 100.3468999  85.0293585
 123.8848333  98.9738719  83.9133785 124.3530542  88.2829619  90.0821353
 122.8106585  89.1635741  89.8917896 123.7636181  91.0840562  91.1891875
 125.2988946  90.2227973  91.3412741 124.0607371  88.4300534  92.6330741
 122.5804861  89.3880040  92.4725076 123.7405385  91.3413520  93.5504737
 125.1995863  90.3674758  93.7301921 123.9486746  88.7708178  95.2008960
 122.4939449  89.7631222  95.0248867 123.7201845  91.7322743  95.9796315
 125.1704190  90.7448191  96.1551142 123.9397463  89.2091405  97.7031609
 122.4880939  90.1983802  97.5296289 125.1683060  91.1736533  98.6561465
 123.7199238  90.7802630  99.6002081 123.7037895  92.1624462  98.4895654
 124.2800187  89.4842503  86.5713470 122.7819227  89.2052412  87.4709758
 125.2587693  87.4209571  87.0752213 123.7330396  87.2149919  86.4628611
 124.3920450  86.8257473  89.4408266 124.1297210  85.6101249  88.2574306
 121.9445027  87.6714618  88.9259114 122.0878803  86.1026479  89.7024419
 121.9743367  84.9531193  87.5347990 121.9639557  86.4767440  86.6627341
 119.8112828  87.1190481  87.6013643 119.7324417  85.5899961  88.4937257
 120.0271578  84.3416438  86.3103392 120.0727045  85.8741868  85.4447974
 117.7138941  84.8721213  87.1065216 117.8331443  84.8380585  85.3345859
 117.7661053  86.3943538  86.1873582 132.2980000  82.6040000  80.9750000
 121.8830000  94.5680000  90.2720000 128.1508435  97.0712258  91.2108018
 126.6216208  97.0803423  91.2108476 126.0569748  95.6583454  91.2099514
 124.5287844  95.6649019  91.2093803 123.9572430  94.2650000  91.2090000
 122.6030000  94.2650000  91.2090000 124.6074269  93.2327992  91.2084242
 121.6960000  95.1690000  88.4140000 121.3249627  95.1686082  89.5474083
 121.3219482  94.5526945  91.2114991 128.5200424  96.5368952  92.0942020
 128.5207372  96.5359623  90.3292715 126.2582267  97.6199011  90.3284328
 126.2571634  97.6199044  92.0933625 126.4231151  95.1144740  92.0889224
 126.4230361  95.1159952  90.3287225 124.1615586  96.1833983  90.3171832
 124.1617875  96.1828719  92.1026810 122.2107631  95.1583881  91.2090000
 130.8290000  85.4030000 104.5160000 132.2787774  92.5042005 105.9421438
 130.7696515  92.4187848 105.8552115 130.2099757  91.5156163 106.9462000
 128.7112477  91.4600210 106.7793451 128.0921405  90.5932373 107.8523042
 126.5858159  90.7251808 107.7777451 125.9680844  89.9240000 106.6290000
 124.4220000  89.9240000 106.6290000 123.8146962  91.3507263 106.6290000
 124.3125752  92.2772788 105.5164628 123.7578467  93.6907891 105.7390727
 124.2653630  94.6542987 104.6710697 123.7134345  96.0654171 104.8918251
 124.2219850  97.0056350 103.7966482 123.6752930  98.4207717 103.9737523
 124.1878685  99.3381607 102.8758112 123.8985855  89.2741111 107.9760708
 124.2174433  90.0920878 109.2204143 123.6753105  89.4524234 110.4948002
 124.1033195  90.3163543 111.6749314 123.5870424  89.7950436 113.0095243
 124.0749724  90.7088103 114.1332741 123.5855094  90.2300682 115.4904483
 124.0733657  91.1410515 116.6043876 123.8671881  89.0533906 105.4626574
 124.2207005  87.5675280 105.3524780 123.8269989  86.6328091 106.5009994
 122.3189551  86.6481187 106.7559279 121.6444240  85.9982166 105.5654070
 120.1360011  86.0689084 105.5740254 119.6558935  85.3733068 104.3025470
 118.1478128  85.3700083 104.2104067 130.3670000  85.6710000 103.5610000
 130.2900455  85.3003397 103.5686543 130.2075611  84.9684972 105.3085043
 132.5739754  92.9056320 106.9178291 132.7141727  91.5022427 105.8524485
 130.4669720  92.0316836 104.8750912 130.3278237  93.4184455 105.9548742
 130.4732239  91.9088512 107.9332884 130.6384698  90.5067144 106.8669043
 128.4543187  91.0747845 105.7925598 128.2978951  92.4780287 106.8503450
 128.4262658  90.9312563 108.8385970 128.4063866  89.5477500 107.7485358
 126.2967068  91.7809578 107.7325596 126.2736052  90.3833389 108.7448530
 126.2883425  88.8809625 106.6783618 126.2823881  90.3264737 105.6612644
 124.0612357  91.8196140 107.5714736 122.7263203  91.2366983 106.5752458
 123.9920002  91.9247926 104.5304638 125.4057742  92.3335952 105.5079588
 124.0619731  94.0505757 106.7301851 122.6615120  93.6612478 105.7266421
 123.9709548  94.2927877 103.6812164 125.3615354  94.6847619 104.6955471
 124.0190479  96.4341915 105.8655017 122.6167292  96.0407877 104.8762742
 123.9255892  96.6188654 102.8153420 125.3180986  97.0302493 103.8183350
 123.9757766  98.8197647 104.9497785 122.5800217  98.4043078 103.9503739
 125.2809208  99.4014951 102.8963196 123.7850697 100.3468999 103.0043585
 123.8848333  98.9738719 101.8883785 124.3530542  88.2829619 108.0571353
 122.8106585  89.1635741 107.8667896 123.7636181  91.0840562 109.1641875
 125.2988946  90.2227973 109.3162741 124.0607371  88.4300534 110.6080741
 122.5804861  89.3880040 110.4475076 123.7405385  91.3413520 111.5254737
 125.1995863  90.3674758 111.7051921 123.9486746  88.7708178 113.1758960
 122.4939449  89.7631222 112.9998867 123.7201845  91.7322743 113.9546315
 125.1704190  90.7448191 114.1301142 123.9397463  89.2091405 115.6781609
 122.4880939  90.1983802 115.5046289 125.1683060  91.1736533 116.6311465
 123.7199238  90.7802630 117.5752081 123.7037895  92.1624462 116.4645654
 124.2800187  89.4842503 104.5463470 122.7819227  89.2052412 105.4459758
 125.2587693  87.4209571 105.0502213 123.7330396  87.2149919 104.4378611
 124.3920450  86.8257473 107.4158266 124.1297210  85.6101249 106.2324306
 121.9445027  87.6714618 106.9009114 122.0878803  86.1026479 107.6774419
 121.9743367  84.9531193 105.5097990 121.9639557  86.4767440 104.6377341
 119.8112828  87.1190481 105.5763643 119.7324417  85.5899961 106.4687257
 120.0271578  84.3416438 104.2853392 120.0727045  85.8741868 103.4197974
 117.7138941  84.8721213 105.0815216 117.8331443  84.8380585 103.3095859
 117.7661053  86.3943538 104.1623582 132.2980000  82.6040000  98.9500000
 121.8830000  94.5680000 108.2470000 128.1508435  97.0712258 109.1858018
 126.6216208  97.0803423 109.1858476 126.0569748  95.6583454 109.1849514
 124.5287844  95.6649019 109.1843803 123.9572430  94.2650000 109.1840000
 122.6030000  94.2650000 109.1840000 124.6074269  93.2327992 109.1834242
 121.6960000  95.1690000 106.3890000 121.3249627  95.1686082 107.5224083
 121.3219482  94.5526945 109.1864991 128.5200424  96.5368952 110.0692020
 128.5207372  96.5359623 108.3042715 126.2582267  97.6199011 108.3034328
 126.2571634  97.6199044 110.0683625 126.4231151  95.1144740 110.0639224
 126.4230361  95.1159952 108.3037225 124.1615586  96.1833983 108.2921832
 124.1617875  96.1828719 110.0776810 122.2107631  95.1583881 109.1840000
 130.8290000  85.4030000 122.4900000 132.2787774  92.5042005 123.9161438
 130.7696515  92.4187848 123.8292115 130.2099757  91.5156163 124.9202000
 128.7112477  91.4600210 124.7533451 128.0921405  90.5932373 125.8263042
 126.5858159  90.7251808 125.7517451 125.9680844  89.9240000 124.6030000
 124.4220000  89.9240000 124.6030000 123.8146962  91.3507263 124.6030000
 124.3125752  92.2772788 123.4904628 123.7578467  93.6907891 123.7130727
 124.2653630  94.6542987 122.6450697 123.7134345  96.0654171 122.8658251
 124.2219850  97.0056350 121.7706482 123.6752930  98.4207717 121.9477523
 124.1878685  99.3381607 120.8498112 123.8985855  89.2741111 125.9500708
 124.2174433  90.0920878 127.1944143 123.6753105  89.4524234 128.4688002
 124.1033195  90.3163543 129.6489314 123.5870424  89.7950436 130.9835243
 124.0749724  90.7088103 132.1072741 123.5855094  90.2300682 133.4644483
 124.0733657  91.1410515 134.5783876 123.8671881  89.0533906 123.4366574
 124.2207005  87.5675280 123.3264780 123.8269989  86.6328091 124.4749994
 122.3189551  86.6481187 124.7299279 121.6444240  85.9982166 123.5394070
 120.1360011  86.0689084 123.5480254 119.6558935  85.3733068 122.2765470
 118.1478128  85.3700083 122.1844067 130.3670000  85.6710000 121.5350000
 130.2900455  85.3003397 121.5426543 130.2075611  84.9684972 123.2825043
 132.5739754  92.9056320 124.8918291 132.7141727  91.5022427 123.8264485
 130.4669720  92.0316836 122.8490912 130.3278237  93.4184455 123.9288742
 130.4732239  91.9088512 125.9072884 130.6384698  90.5067144 124.8409043
 128.4543187  91.0747845 123.7665598 128.2978951  92.4780287 124.8243450
 128.4262658  90.9312563 126.8125970 128.4063866  89.5477500 125.7225358
 126.2967068  91.7809578 125.7065596 126.2736052  90.3833389 126.7188530
 126.2883425  88.8809625 124.6523618 126.2823881  90.3264737 123.6352644
 124.0612357  91.8196140 125.5454736 122.7263203  91.2366983 124.5492458
 123.9920002  91.9247926 122.5044638 125.4057742  92.3335952 123.4819588
 124.0619731  94.0505757 124.7041851 122.6615120  93.6612478 123.7006421
 123.9709548  94.2927877 121.6552164 125.3615354  94.6847619 122.6695471
 124.0190479  96.4341915 123.8395017 122.6167292  96.0407877 122.8502742
 123.9255892  96.6188654 120.7893420 125.3180986  97.0302493 121.7923350
 123.9757766  98.8197647 122.9237785 122.5800217  98.4043078 121.9243739
 125.2809208  99.4014951 120.8703196 123.7850697 100.3468999 120.9783585
 123.8848333  98.9738719 119.8623785 124.3530542  88.2829619 126.0311353
 122.8106585  89.1635741 125.8407896 123.7636181  91.0840562 127.1381875
 125.2988946  90.2227973 127.2902741 124.0607371  88.4300534 128.5820741
 122.5804861  89.3880040 128.4215076 123.7405385  91.3413520 129.4994737
 125.1995863  90.3674758 129.6791921 123.9486746  88.7708178 131.1498960
 122.4939449  89.7631222 130.9738867 123.7201845  91.7322743 131.9286315
 125.1704190  90.7448191 132.1041142 123.9397463  89.2091405 133.6521609
 122.4880939  90.1983802 133.4786289 125.1683060  91.1736533 134.6051465
 123.7199238  90.7802630 135.5492081 123.7037895  92.1624462 134.4385654
 124.2800187  89.4842503 122.5203470 122.7819227  89.2052412 123.4199758
 125.2587693  87.4209571 123.0242213 123.7330396  87.2149919 122.4118611
 124.3920450  86.8257473 125.3898266 124.1297210  85.6101249 124.2064306
 121.9445027  87.6714618 124.8749114 122.0878803  86.1026479 125.6514419
 121.9743367  84.9531193 123.4837990 121.9639557  86.4767440 122.6117341
 119.8112828  87.1190481 123.5503643 119.7324417  85.5899961 124.4427257
 120.0271578  84.3416438 122.2593392 120.0727045  85.8741868 121.3937974
 117.7138941  84.8721213 123.0555216 117.8331443  84.8380585 121.2835859
 117.7661053  86.3943538 122.1363582 132.2980000  82.6040000 116.9240000
 121.8830000  94.5680000 126.2210000 128.1508435  97.0712258 127.1598018
 126.6216208  97.0803423 127.1598476 126.0569748  95.6583454 127.1589514
 124.5287844  95.6649019 127.1583803 123.9572430  94.2650000 127.1580000
 122.6030000  94.2650000 127.1580000 124.6074269  93.2327992 127.1574242
 121.6960000  95.1690000 124.3630000 121.3249627  95.1686082 125.4964083
 121.3219482  94.5526945 127.1604991 128.5200424  96.5368952 128.0432020
 128.5207372  96.5359623 126.2782715 126.2582267  97.6199011 126.2774328
 126.2571634  97.6199044 128.0423625 126.4231151  95.1144740 128.0379224
 126.4230361  95.1159952 126.2777225 124.1615586  96.1833983 126.2661832
 124.1617875  96.1828719 128.0516810 122.2107631  95.1583881 127.1580000
 130.8290000  85.4030000 140.4650000 132.2787774  92.5042005 141.8911438
 130.7696515  92.4187848 141.8042115 130.2099757  91.5156163 142.8952000
 128.7112477  91.4600210 142.7283451 128.0921405  90.5932373 143.8013042
 126.5858159  90.7251808 143.7267451 125.9680844  89.9240000 142.5780000
 124.4220000  89.9240000 142.5780000 123.8146962  91.3507263 142.5780000
 124.3125752  92.2772788 141.4654628 123.7578467  93.6907891 141.6880727
 124.2653630  94.6542987 140.6200697 123.7134345  96.0654171 140.8408251
 124.2219850  97.0056350 139.7456482 123.6752930  98.4207717 139.9227523
 124.1878685  99.3381607 138.8248112 123.8985855  89.2741111 143.9250708
 124.2174433  90.0920878 145.1694143 123.6753105  89.4524234 146.4438002
 124.1033195  90.3163543 147.6239314 123.5870424  89.7950436 148.9585243
 124.0749724  90.7088103 150.0822741 123.5855094  90.2300682 151.4394483
 124.0733657  91.1410515 152.5533876 123.8671881  89.0533906 141.4116574
 124.2207005  87.5675280 141.3014780 123.8269989  86.6328091 142.4499994
 122.3189551  86.6481187 142.7049279 121.6444240  85.9982166 141.5144070
 120.1360011  86.0689084 141.5230254 119.6558935  85.3733068 140.2515470
 118.1478128  85.3700083 140.1594067 130.3670000  85.6710000 139.5100000
 130.2900455  85.3003397 139.5176543 130.2075611  84.9684972 141.2575043
 132.5739754  92.9056320 142.8668291 132.7141727  91.5022427 141.8014485
 130.4669720  92.0316836 140.8240912 130.3278237  93.4184455 141.9038742
 130.4732239  91.9088512 143.8822884 130.6384698  90.5067144 142.8159043
 128.4543187  91.0747845 141.7415598 128.2978951  92.4780287 142.7993450
 128.4262658  90.9312563 144.7875970 128.4063866  89.5477500 143.6975358
 126.2967068  91.7809578 143.6815596 126.2736052  90.3833389 144.6938530
 126.2883425  88.8809625 142.6273618 126.2823881  90.3264737 141.6102644
 124.0612357  91.8196140 143.5204736 122.7263203  91.2366983 142.5242458
 123.9920002  91.9247926 140.4794638 125.4057742  92.3335952 141.4569588
 124.0619731  94.0505757 142.6791851 122.6615120  93.6612478 141.6756421
 123.9709548  94.2927877 139.6302164 125.3615354  94.6847619 140.6445471
 124.0190479  96.4341915 141.8145017 122.6167292  96.0407877 140.8252742
 123.9255892  96.6188654 138.7643420 125.3180986  97.0302493 139.7673350
 123.9757766  98.8197647 140.8987785 122.5800217  98.4043078 139.8993739
 125.2809208  99.4014951 138.8453196 123.7850697 100.3468999 138.9533585
 123.8848333  98.9738719 137.8373785 124.3530542  88.2829619 144.0061353
 122.8106585  89.1635741 143.8157896 123.7636181  91.0840562 145.1131875
 125.2988946  90.2227973 145.2652741 124.0607371  88.4300534 146.5570741
 122.5804861  89.3880040 146.3965076 123.7405385  91.3413520 147.4744737
 125.1995863  90.3674758 147.6541921 123.9486746  88.7708178 149.1248960
 122.4939449  89.7631222 148.9488867 123.7201845  91.7322743 149.9036315
 125.1704190  90.7448191 150.0791142 123.9397463  89.2091405 151.6271609
 122.4880939  90.1983802 151.4536289 125.1683060  91.1736533 152.5801465
 123.7199238  90.7802630 153.5242081 123.7037895  92.1624462 152.4135654
 124.2800187  89.4842503 140.4953470 122.7819227  89.2052412 141.3949758
 125.2587693  87.4209571 140.9992213 123.7330396  87.2149919 140.3868611
 124.3920450  86.8257473 143.3648266 124.1297210  85.6101249 142.1814306
 121.9445027  87.6714618 142.8499114 122.0878803  86.1026479 143.6264419
 121.9743367  84.9531193 141.4587990 121.9639557  86.4767440 140.5867341
 119.8112828  87.1190481 141.5253643 119.7324417  85.5899961 142.4177257
 120.0271578  84.3416438 140.2343392 120.0727045  85.8741868 139.3687974
 117.7138941  84.8721213 141.0305216 117.8331443  84.8380585 139.2585859
 117.7661053  86.3943538 140.1113582 132.2980000  82.6040000 134.8990000
 121.8830000  94.5680000 144.1960000 128.1508435  97.0712258 145.1348018
 126.6216208  97.0803423 145.1348476 126.0569748  95.6583454 145.1339514
 124.5287844  95.6649019 145.1333803 123.9572430  94.2650000 145.1330000
 122.6030000  94.2650000 145.1330000 124.6074269  93.2327992 145.1324242
 121.6960000  95.1690000 142.3380000 121.3249627  95.1686082 143.4714083
 121.3219482  94.5526945 145.1354991 128.5200424  96.5368952 146.0182020
 128.5207372  96.5359623 144.2532715 126.2582267  97.6199011 144.2524328
 126.2571634  97.6199044 146.0173625 126.4231151  95.1144740 146.0129224
 126.4230361  95.1159952 144.2527225 124.1615586  96.1833983 144.2411832
 124.1617875  96.1828719 146.0266810 122.2107631  95.1583881 145.1330000
 130.8290000  85.4030000 158.4400000 132.2787774  92.5042005 159.8661438
 130.7696515  92.4187848 159.7792115 130.2099757  91.5156163 160.8702000
 128.7112477  91.4600210 160.7033451 128.0921405  90.5932373 161.7763042
 126.5858159  90.7251808 161.7017451 125.9680844  89.9240000 160.5530000
 124.4220000  89.9240000 160.5530000 123.8146962  91.3507263 160.5530000
 124.3125752  92.2772788 159.4404628 123.7578467  93.6907891 159.6630727
 124.2653630  94.6542987 158.5950697 123.7134345  96.0654171 158.8158251
 124.2219850  97.0056350 157.7206482 123.6752930  98.4207717 157.8977523
 124.1878685  99.3381607 156.7998112 123.8985855  89.2741111 161.9000708
 124.2174433  90.0920878 163.1444143 123.6753105  89.4524234 164.4188002
 124.1033195  90.3163543 165.5989314 123.5870424  89.7950436 166.9335243
 124.0749724  90.7088103 168.0572741 123.5855094  90.2300682 169.4144483
 124.0733657  91.1410515 170.5283876 123.8671881  89.0533906 159.3866574
 124.2207005  87.5675280 159.2764780 123.8269989  86.6328091 160.4249994
 122.3189551  86.6481187 160.6799279 121.6444240  85.9982166 159.4894070
 120.1360011  86.0689084 159.4980254 119.6558935  85.3733068 158.2265470
 118.1478128  85.3700083 158.1344067 130.3670000  85.6710000 157.4850000
 130.2900455  85.3003397 157.4926543 130.2075611  84.9684972 159.2325043
 132.5739754  92.9056320 160.8418291 132.7141727  91.5022427 159.7764485
 130.4669720  92.0316836 158.7990912 130.3278237  93.4184455 159.8788742
 130.4732239  91.9088512 161.8572884 130.6384698  90.5067144 160.7909043
 128.4543187  91.0747845 159.7165598 128.2978951  92.4780287 160.7743450
 128.4262658  90.9312563 162.7625970 128.4063866  89.5477500 161.6725358
 126.2967068  91.7809578 161.6565596 126.2736052  90.3833389 162.6688530
 126.2883425  88.8809625 160.6023618 126.2823881  90.3264737 159.5852644
 124.0612357  91.8196140 161.4954736 122.7263203  91.2366983 160.4992458
 123.9920002  91.9247926 158.4544638 125.4057742  92.3335952 159.4319588
 124.0619731  94.0505757 160.6541851 122.6615120  93.6612478 159.6506421
 123.9709548  94.2927877 157.6052164 125.3615354  94.6847619 158.6195471
 124.0190479  96.4341915 159.7895017 122.6167292  96.0407877 158.8002742
 123.9255892  96.6188654 156.7393420 125.3180986  97.0302493 157.7423350
 123.9757766  98.8197647 158.8737785 122.5800217  98.4043078 157.8743739
 125.2809208  99.4014951 156.8203196 123.7850697 100.3468999 156.9283585
 123.8848333  98.9738719 155.8123785 124.3530542  88.2829619 161.9811353
 122.8106585  89.1635741 161.7907896 123.7636181  91.0840562 163.0881875
 125.2988946  90.2227973 163.2402741 124.0607371  88.4300534 164.5320741
 122.5804861  89.3880040 164.3715076 123.7405385  91.3413520 165.4494737
 125.1995863  90.3674758 165.6291921 123.9486746  88.7708178 167.0998960
 122.4939449  89.7631222 166.9238867 123.7201845  91.7322743 167.8786315
 125.1704190  90.7448191 168.0541142 123.9397463  89.2091405 169.6021609
 122.4880939  90.1983802 169.4286289 125.1683060  91.1736533 170.5551465
 123.7199238  90.7802630 171.4992081 123.7037895  92.1624462 170.3885654
 124.2800187  89.4842503 158.4703470 122.7819227  89.2052412 159.3699758
 125.2587693  87.4209571 158.9742213 123.7330396  87.2149919 158.3618611
 124.3920450  86.8257473 161.3398266 124.1297210  85.6101249 160.1564306
 121.9445027  87.6714618 160.8249114 122.0878803  86.1026479 161.6014419
 121.9743367  84.9531193 159.4337990 121.9639557  86.4767440 158.5617341
 119.8112828  87.1190481 159.5003643 119.7324417  85.5899961 160.3927257
 120.0271578  84.3416438 158.2093392 120.0727045  85.8741868 157.3437974
 117.7138941  84.8721213 159.0055216 117.8331443  84.8380585 157.2335859
 117.7661053  86.3943538 158.0863582 132.2980000  82.6040000 152.8740000
 121.8830000  94.5680000 162.1710000 128.1508435  97.0712258 163.1098018
 126.6216208  97.0803423 163.1098476 126.0569748  95.6583454 163.1089514
 124.5287844  95.6649019 163.1083803 123.9572430  94.2650000 163.1080000
 122.6030000  94.2650000 163.1080000 124.6074269  93.2327992 163.1074242
 121.6960000  95.1690000 160.3130000 121.3249627  95.1686082 161.4464083
 121.3219482  94.5526945 163.1104991 128.5200424  96.5368952 163.9932020
 128.5207372  96.5359623 162.2282715 126.2582267  97.6199011 162.2274328
 126.2571634  97.6199044 163.9923625 126.4231151  95.1144740 163.9879224
 126.4230361  95.1159952 162.2277225 124.1615586  96.1833983 162.2161832
 124.1617875  96.1828719 164.0016810 122.2107631  95.1583881 163.1080000
 130.8290000  85.4030000 176.4150000 132.2787774  92.5042005 177.8411438
 130.7696515  92.4187848 177.7542115 130.2099757  91.5156163 178.8452000
 128.7112477  91.4600210 178.6783451 128.0921405  90.5932373 179.7513042
 126.5858159  90.7251808 179.6767451 125.9680844  89.9240000 178.5280000
 124.4220000  89.9240000 178.5280000 123.8146962  91.3507263 178.5280000
 124.3125752  92.2772788 177.4154628 123.7578467  93.6907891 177.6380727
 124.2653630  94.6542987 176.5700697 123.7134345  96.0654171 176.7908251
 124.2219850  97.0056350 175.6956482 123.6752930  98.4207717 175.8727523
 124.1878685  99.3381607 174.7748112 123.8985855  89.2741111 179.8750708
 124.2174433  90.0920878 181.1194143 123.6753105  89.4524234 182.3938002
 124.1033195  90.3163543 183.5739314 123.5870424  89.7950436 184.9085243
 124.0749724  90.7088103 186.0322741 123.5855094  90.2300682 187.3894483
 124.0733657  91.1410515 188.5033876 123.8671881  89.0533906 177.3616574
 124.2207005  87.5675280 177.2514780 123.8269989  86.6328091 178.3999994
 122.3189551  86.6481187 178.6549279 121.6444240  85.9982166 177.4644070
 120.1360011  86.0689084 177.4730254 119.6558935  85.3733068 176.2015470
 118.1478128  85.3700083 176.1094067 130.3670000  85.6710000 175.4600000
 130.2900455  85.3003397 175.4676543 130.2075611  84.9684972 177.2075043
 132.5739754  92.9056320 178.8168291 132.7141727  91.5022427 177.7514485
 130.4669720  92.0316836 176.7740912 130.3278237  93.4184455 177.8538742
 130.4732239  91.9088512 179.8322884 130.6384698  90.5067144 178.7659043
 128.4543187  91.0747845 177.6915598 128.2978951  92.4780287 178.7493450
 128.4262658  90.9312563 180.7375970 128.4063866  89.5477500 179.6475358
 126.2967068  91.7809578 179.6315596 126.2736052  90.3833389 180.6438530
 126.2883425  88.8809625 178.5773618 126.2823881  90.3264737 177.5602644
 124.0612357  91.8196140 179.4704736 122.7263203  91.2366983 178.4742458
 123.9920002  91.9247926 176.4294638 125.4057742  92.3335952 177.4069588
 124.0619731  94.0505757 178.6291851 122.6615120  93.6612478 177.6256421
 123.9709548  94.2927877 175.5802164 125.3615354  94.6847619 176.5945471
 124.0190479  96.4341915 177.7645017 122.6167292  96.0407877 176.7752742
 123.9255892  96.6188654 174.7143420 125.3180986  97.0302493 175.7173350
 123.9757766  98.8197647 176.8487785 122.5800217  98.4043078 175.8493739
 125.2809208  99.4014951 174.7953196 123.7850697 100.3468999 174.9033585
 123.8848333  98.9738719 173.7873785 124.3530542  88.2829619 179.9561353
 122.8106585  89.1635741 179.7657896 123.7636181  91.0840562 181.0631875
 125.2988946  90.2227973 181.2152741 124.0607371  88.4300534 182.5070741
 122.5804861  89.3880040 182.3465076 123.7405385  91.3413520 183.4244737
 125.1995863  90.3674758 183.6041921 123.9486746  88.7708178 185.0748960
 122.4939449  89.7631222 184.8988867 123.7201845  91.7322743 185.8536315
 125.1704190  90.7448191 186.0291142 123.9397463  89.2091405 187.5771609
 122.4880939  90.1983802 187.4036289 125.1683060  91.1736533 188.5301465
 123.7199238  90.7802630 189.4742081 123.7037895  92.1624462 188.3635654
 124.2800187  89.4842503 176.4453470 122.7819227  89.2052412 177.3449758
 125.2587693  87.4209571 176.9492213 123.7330396  87.2149919 176.3368611
 124.3920450  86.8257473 179.3148266 124.1297210  85.6101249 178.1314306
 121.9445027  87.6714618 178.7999114 122.0878803  86.1026479 179.5764419
 121.9743367  84.9531193 177.4087990 121.9639557  86.4767440 176.5367341
 119.8112828  87.1190481 177.4753643 119.7324417  85.5899961 178.3677257
 120.0271578  84.3416438 176.1843392 120.0727045  85.8741868 175.3187974
 117.7138941  84.8721213 176.9805216 117.8331443  84.8380585 175.2085859
 117.7661053  86.3943538 176.0613582 132.2980000  82.6040000 170.8490000
 121.8830000  94.5680000 180.1460000 128.1508435  97.0712258 181.0848018
 126.6216208  97.0803423 181.0848476 126.0569748  95.6583454 181.0839514
 124.5287844  95.6649019 181.0833803 123.9572430  94.2650000 181.0830000
 122.6030000  94.2650000 181.0830000 124.6074269  93.2327992 181.0824242
 121.6960000  95.1690000 178.2880000 121.3249627  95.1686082 179.4214083
 121.3219482  94.5526945 181.0854991 128.5200424  96.5368952 181.9682020
 128.5207372  96.5359623 180.2032715 126.2582267  97.6199011 180.2024328
 126.2571634  97.6199044 181.9673625 126.4231151  95.1144740 181.9629224
 126.4230361  95.1159952 180.2027225 124.1615586  96.1833983 180.1911832
 124.1617875  96.1828719 181.9766810 122.2107631  95.1583881 181.0830000
 130.8290000 104.0060000  68.5660000 132.2787774 111.1072005  69.9921438
 130.7696515 111.0217848  69.9052115 130.2099757 110.1186163  70.9962000
 128.7112477 110.0630210  70.8293451 128.0921405 109.1962373  71.9023042
 126.5858159 109.3281808  71.8277451 125.9680844 108.5270000  70.6790000
 124.4220000 108.5270000  70.6790000 123.8146962 109.9537263  70.6790000
 124.3125752 110.8802788  69.5664628 123.7578467 112.2937891  69.7890727
 124.2653630 113.2572987  68.7210697 123.7134345 114.6684171  68.9418251
 124.2219850 115.6086350  67.8466482 123.6752930 117.0237717  68.0237523
 124.1878685 117.9411607  66.9258112 123.8985855 107.8771111  72.0260708
 124.2174433 108.6950878  73.2704143 123.6753105 108.0554234  74.5448002
 124.1033195 108.9193543  75.7249314 123.5870424 108.3980436  77.0595243
 124.0749724 109.3118103  78.1832741 123.5855094 108.8330682  79.5404483
 124.0733657 109.7440515  80.6543876 123.8671881 107.6563906  69.5126574
 124.2207005 106.1705280  69.4024780 123.8269989 105.2358091  70.5509994
 122.3189551 105.2511187  70.8059279 121.6444240 104.6012166  69.6154070
 120.1360011 104.6719084  69.6240254 119.6558935 103.9763068  68.3525470
 118.1478128 103.9730083  68.2604067 130.3670000 104.2740000  67.6110000
 130.2900455 103.9033397  67.6186543 130.2075611 103.5714972  69.3585043
 132.5739754 111.5086320  70.9678291 132.7141727 110.1052427  69.9024485
 130.4669720 110.6346836  68.9250912 130.3278237 112.0214455  70.0048742
 130.4732239 110.5118512  71.9832884 130.6384698 109.1097144  70.9169043
 128.4543187 109.6777845  69.8425598 128.2978951 111.0810287  70.9003450
 128.4262658 109.5342563  72.8885970 128.4063866 108.1507500  71.7985358
 126.2967068 110.3839578  71.7825596 126.2736052 108.9863389  72.7948530
 126.2883425 107.4839625  70.7283618 126.2823881 108.9294737  69.7112644
 124.0612357 110.4226140  71.6214736 122.7263203 109.8396983  70.6252458
 123.9920002 110.5277926  68.5804638 125.4057742 110.9365952  69.5579588
 124.0619731 112.6535757  70.7801851 122.6615120 112.2642478  69.7766421
 123.9709548 112.8957877  67.7312164 125.3615354 113.2877619  68.7455471
 124.0190479 115.0371915  69.9155017 122.6167292 114.6437877  68.9262742
 123.9255892 115.2218654  66.8653420 125.3180986 115.6332493  67.8683350
 123.9757766 117.4227647  68.9997785 122.5800217 117.0073078  68.0003739
 125.2809208 118.0044951  66.9463196 123.7850697 118.9498999  67.0543585
 123.8848333 117.5768719  65.9383785 124.3530542 106.8859619  72.1071353
 122.8106585 107.7665741  71.9167896 123.7636181 109.6870562  73.2141875
 125.2988946 108.8257973  73.3662741 124.0607371 107.0330534  74.6580741
 122.5804861 107.9910040  74.4975076 123.7405385 109.9443520  75.5754737
 125.1995863 108.9704758  75.7551921 123.9486746 107.3738178  77.2258960
 122.4939449 108.3661222  77.0498867 123.7201845 110.3352743  78.0046315
 125.1704190 109.3478191  78.1801142 123.9397463 107.8121405  79.7281609
 122.4880939 108.8013802  79.5546289 125.1683060 109.7766533  80.6811465
 123.7199238 109.3832630  81.6252081 123.7037895 110.7654462  80.5145654
 124.2800187 108.0872503  68.5963470 122.7819227 107.8082412  69.4959758
 125.2587693 106.0239571  69.1002213 123.7330396 105.8179919  68.4878611
 124.3920450 105.4287473  71.4658266 124.1297210 104.2131249  70.2824306
 121.9445027 106.2744618  70.9509114 122.0878803 104.7056479  71.7274419
 121.9743367 103.5561193  69.5597990 121.9639557 105.0797440  68.6877341
 119.8112828 105.7220481  69.6263643 119.7324417 104.1929961  70.5187257
 120.0271578 102.9446438  68.3353392 120.0727045 104.4771868  67.4697974
 117.7138941 103.4751213  69.1315216 117.8331443 103.4410585  67.3595859
 117.7661053 104.9973538  68.2123582 132.2980000 101.2070000  63.0000000
 121.8830000 113.1710000  72.2970000 128.1508435 115.6742258  73.2358018
 126.6216208 115.6833423  73.2358476 126.0569748 114.2613454  73.2349514
 124.5287844 114.2679019  73.2343803 123.9572430 112.8680000  73.2340000
 122.6030000 112.8680000  73.2340000 124.6074269 111.8357992  73.2334242
 121.6960000 113.7720000  70.4390000 121.3249627 113.7716082  71.5724083
 121.3219482 113.1556945  73.2364991 128.5200424 115.1398952  74.1192020
 128.5207372 115.1389623  72.3542715 126.2582267 116.2229011  72.3534328
 126.2571634 116.2229044  74.1183625 126.4231151 113.7174740  74.1139224
 126.4230361 113.7189952  72.3537225 124.1615586 114.7863983  72.3421832
 124.1617875 114.7858719  74.1276810 122.2107631 113.7613881  73.2340000
 130.8290000 104.0060000  86.5410000 132.2787774 111.1072005  87.9671438
 130.7696515 111.0217848  87.8802115 130.2099757 110.1186163  88.9712000
 128.7112477 110.0630210  88.8043451 128.0921405 109.1962373  89.8773042
 126.5858159 109.3281808  89.8027451 125.9680844 108.5270000  88.6540000
 124.4220000 108.5270000  88.6540000 123.8146962 109.9537263  88.6540000
 124.3125752 110.8802788  87.5414628 123.7578467 112.2937891  87.7640727
 124.2653630 113.2572987  86.6960697 123.7134345 114.6684171  86.9168251
 124.2219850 115.6086350  85.8216482 123.6752930 117.0237717  85.9987523
 124.1878685 117.9411607  84.9008112 123.8985855 107.8771111  90.0010708
 124.2174433 108.6950878  91.2454143 123.6753105 108.0554234  92.5198002
 124.1033195 108.9193543  93.6999314 123.5870424 108.3980436  95.0345243
 124.0749724 109.3118103  96.1582741 123.5855094 108.8330682  97.5154483
 124.0733657 109.7440515  98.6293876 123.8671881 107.6563906  87.4876574
 124.2207005 106.1705280  87.3774780 123.8269989 105.2358091  88.5259994
 122.3189551 105.2511187  88.7809279 121.6444240 104.6012166  87.5904070
 120.1360011 104.6719084  87.5990254 119.6558935 103.9763068  86.3275470
 118.1478128 103.9730083  86.2354067 130.3670000 104.2740000  85.5860000
 130.2900455 103.9033397  85.5936543 130.2075611 103.5714972  87.3335043
 132.5739754 111.5086320  88.9428291 132.7141727 110.1052427  87.8774485
 130.4669720 110.6346836  86.9000912 130.3278237 112.0214455  87.9798742
 130.4732239 110.5118512  89.9582884 130.6384698 109.1097144  88.8919043
 128.4543187 109.6777845  87.8175598 128.2978951 111.0810287  88.8753450
 128.4262658 109.5342563  90.8635970 128.4063866 108.1507500  89.7735358
 126.2967068 110.3839578  89.7575596 126.2736052 108.9863389  90.7698530
 126.2883425 107.4839625  88.7033618 126.2823881 108.9294737  87.6862644
 124.0612357 110.4226140  89.5964736 122.7263203 109.8396983  88.6002458
 123.9920002 110.5277926  86.5554638 125.4057742 110.9365952  87.5329588
 124.0619731 112.6535757  88.7551851 122.6615120 112.2642478  87.7516421
 123.9709548 112.8957877  85.7062164 125.3615354 113.2877619  86.7205471
 124.0190479 115.0371915  87.8905017 122.6167292 114.6437877  86.9012742
 123.9255892 115.2218654  84.8403420 125.3180986 115.6332493  85.8433350
 123.9757766 117.4227647  86.9747785 122.5800217 117.0073078  85.9753739
 125.2809208 118.0044951  84.9213196 123.7850697 118.9498999  85.0293585
 123.8848333 117.5768719  83.9133785 124.3530542 106.8859619  90.0821353
 122.8106585 107.7665741  89.8917896 123.7636181 109.6870562  91.1891875
 125.2988946 108.8257973  91.3412741 124.0607371 107.0330534  92.6330741
 122.5804861 107.9910040  92.4725076 123.7405385 109.9443520  93.5504737
 125.1995863 108.9704758  93.7301921 123.9486746 107.3738178  95.2008960
 122.4939449 108.3661222  95.0248867 123.7201845 110.3352743  95.9796315
 125.1704190 109.3478191  96.1551142 123.9397463 107.8121405  97.7031609
 122.4880939 108.8013802  97.5296289 125.1683060 109.7766533  98.6561465
 123.7199238 109.3832630  99.6002081 123.7037895 110.7654462  98.4895654
 124.2800187 108.0872503  86.5713470 122.7819227 107.8082412  87.4709758
 125.2587693 106.0239571  87.0752213 123.7330396 105.8179919  86.4628611
 124.3920450 105.4287473  89.4408266 124.1297210 104.2131249  88.2574306
 121.9445027 106.2744618  88.9259114 122.0878803 104.7056479  89.7024419
 121.9743367 103.5561193  87.5347990 121.9639557 105.0797440  86.6627341
 119.8112828 105.7220481  87.6013643 119.7324417 104.1929961  88.4937257
 120.0271578 102.9446438  86.3103392 120.0727045 104.4771868  85.4447974
 117.7138941 103.4751213  87.1065216 117.8331443 103.4410585  85.3345859
 117.7661053 104.9973538  86.1873582 132.2980000 101.2070000  80.9750000
 121.8830000 113.1710000  90.2720000 128.1508435 115.6742258  91.2108018
 126.6216208 115.6833423  91.2108476 126.0569748 114.2613454  91.2099514
 124.5287844 114.2679019  91.2093803 123.9572430 112.8680000  91.2090000
 122.6030000 112.8680000  91.2090000 124.6074269 111.8357992  91.2084242
 121.6960000 113.7720000  88.4140000 121.3249627 113.7716082  89.5474083
 121.3219482 113.1556945  91.2114991 128.5200424 115.1398952  92.0942020
 128.5207372 115.1389623  90.3292715 126.2582267 116.2229011  90.3284328
 126.2571634 116.2229044  92.0933625 126.4231151 113.7174740  92.0889224
 126.4230361 113.7189952  90.3287225 124.1615586 114.7863983  90.3171832
 124.1617875 114.7858719  92.1026810 122.2107631 113.7613881  91.2090000
 130.8290000 104.0060000 104.5160000 132.2787774 111.1072005 105.9421438
 130.7696515 111.0217848 105.8552115 130.2099757 110.1186163 106.9462000
 128.7112477 110.0630210 106.7793451 128.0921405 109.1962373 107.8523042
 126.5858159 109.3281808 107.7777451 125.9680844 108.5270000 106.6290000
 124.4220000 108.5270000 106.6290000 123.8146962 109.9537263 106.6290000
 124.3125752 110.8802788 105.5164628 123.7578467 112.2937891 105.7390727
 124.2653630 113.2572987 104.6710697 123.7134345 114.6684171 104.8918251
 124.2219850 115.6086350 103.7966482 123.6752930 117.0237717 103.9737523
 124.1878685 117.9411607 102.8758112 123.8985855 107.8771111 107.9760708
 124.2174433 108.6950878 109.2204143 123.6753105 108.0554234 110.4948002
 124.1033195 108.9193543 111.6749314 123.5870424 108.3980436 113.0095243
 124.0749724 109.3118103 114.1332741 123.5855094 108.8330682 115.4904483
 124.0733657 109.7440515 116.6043876 123.8671881 107.6563906 105.4626574
 124.2207005 106.1705280 105.3524780 123.8269989 105.2358091 106.5009994
 122.3189551 105.2511187 106.7559279 121.6444240 104.6012166 105.5654070
 120.1360011 104.6719084 105.5740254 119.6558935 103.9763068 104.3025470
 118.1478128 103.9730083 104.2104067 130.3670000 104.2740000 103.5610000
 130.2900455 103.9033397 103.5686543 130.2075611 103.5714972 105.3085043
 132.5739754 111.5086320 106.9178291 132.7141727 110.1052427 105.8524485
 130.4669720 110.6346836 104.8750912 130.3278237 112.0214455 105.9548742
 130.4732239 110.5118512 107.9332884 130.6384698 109.1097144 106.8669043
 128.4543187 109.6777845 105.7925598 128.2978951 111.0810287 106.8503450
 128.4262658 109.5342563 108.8385970 128.4063866 108.1507500 107.7485358
 126.2967068 110.3839578 107.7325596 126.2736052 108.9863389 108.7448530
 126.2883425 107.4839625 106.6783618 126.2823881 108.9294737 105.6612644
 124.0612357 110.4226140 107.5714736 122.7263203 109.8396983 106.5752458
 123.9920002 110.5277926 104.5304638 125.4057742 110.9365952 105.5079588
 124.0619731 112.6535757 106.7301851 122.6615120 112.2642478 105.7266421
 123.9709548 112.8957877 103.6812164 125.3615354 113.2877619 104.6955471
 124.0190479 115.0371915 105.8655017 122.6167292 114.6437877 104.8762742
 123.9255892 115.2218654 102.8153420 125.3180986 115.6332493 103.8183350
 123.9757766 117.4227647 104.9497785 122.5800217 117.0073078 103.9503739
 125.2809208 118.0044951 102.8963196 123.7850697 118.9498999 103.0043585
 123.8848333 117.5768719 101.8883785 124.3530542 106.8859619 108.0571353
 122.8106585 107.7665741 107.8667896 123.7636181 109.6870562 109.1641875
 125.2988946 108.8257973 109.3162741 124.0607371 107.0330534 110.6080741
 122.5804861 107.9910040 110.4475076 123.7405385 109.9443520 111.5254737
 125.1995863 108.9704758 111.7051921 123.9486746 107.3738178 113.1758960
 122.4939449 108.3661222 112.9998867 123.7201845 110.3352743 113.9546315
 125.1704190 109.3478191 114.1301142 123.9397463 107.8121405 115.6781609
 122.4880939 108.8013802 115.5046289 125.1683060 109.7766533 116.6311465
 123.7199238 109.3832630 117.5752081 123.7037895 110.7654462 116.4645654
 124.2800187 108.0872503 104.5463470 122.7819227 107.8082412 105.4459758
 125.2587693 106.0239571 105.0502213 123.7330396 105.8179919 104.4378611
 124.3920450 105.4287473 107.4158266 124.1297210 104.2131249 106.2324306
 121.9445027 106.2744618 106.9009114 122.0878803 104.7056479 107.6774419
 121.9743367 103.5561193 105.5097990 121.9639557 105.0797440 104.6377341
 119.8112828 105.7220481 105.5763643 119.7324417 104.1929961 106.4687257
 120.0271578 102.9446438 104.2853392 120.0727045 104.4771868 103.4197974
 117.7138941 103.4751213 105.0815216 117.8331443 103.4410585 103.3095859
 117.7661053 104.9973538 104.1623582 132.2980000 101.2070000  98.9500000
 121.8830000 113.1710000 108.2470000 128.1508435 115.6742258 109.1858018
 126.6216208 115.6833423 109.1858476 126.0569748 114.2613454 109.1849514
 124.5287844 114.2679019 109.1843803 123.9572430 112.8680000 109.1840000
 122.6030000 112.8680000 109.1840000 124.6074269 111.8357992 109.1834242
 121.6960000 113.7720000 106.3890000 121.3249627 113.7716082 107.5224083
 121.3219482 113.1556945 109.1864991 128.5200424 115.1398952 110.0692020
 128.5207372 115.1389623 108.3042715 126.2582267 116.2229011 108.3034328
 126.2571634 116.2229044 110.0683625 126.4231151 113.7174740 110.0639224
 126.4230361 113.7189952 108.3037225 124.1615586 114.7863983 108.2921832
 124.1617875 114.7858719 110.0776810 122.2107631 113.7613881 109.1840000
 130.8290000 104.0060000 122.4900000 132.2787774 111.1072005 123.9161438
 130.7696515 111.0217848 123.8292115 130.2099757 110.1186163 124.9202000
 128.7112477 110.0630210 124.7533451 128.0921405 109.1962373 125.8263042
 126.5858159 109.3281808 125.7517451 125.9680844 108.5270000 124.6030000
 124.4220000 108.5270000 124.6030000 123.8146962 109.9537263 124.6030000
 124.3125752 110.8802788 123.4904628 123.7578467 112.2937891 123.7130727
 124.2653630 113.2572987 122.6450697 123.7134345 114.6684171 122.8658251
 124.2219850 115.6086350 121.7706482 123.6752930 117.0237717 121.9477523
 124.1878685 117.9411607 120.8498112 123.8985855 107.8771111 125.9500708
 124.2174433 108.6950878 127.1944143 123.6753105 108.0554234 128.4688002
 124.1033195 108.9193543 129.6489314 123.5870424 108.3980436 130.9835243
 124.0749724 109.3118103 132.1072741 123.5855094 108.8330682 133.4644483
 124.0733657 109.7440515 134.5783876 123.8671881 107.6563906 123.4366574
 124.2207005 106.1705280 123.3264780 123.8269989 105.2358091 124.4749994
 122.3189551 105.2511187 124.7299279 121.6444240 104.6012166 123.5394070
 120.1360011 104.6719084 123.5480254 119.6558935 103.9763068 122.2765470
 118.1478128 103.9730083 122.1844067 130.3670000 104.2740000 121.5350000
 130.2900455 103.9033397 121.5426543 130.2075611 103.5714972 123.2825043
 132.5739754 111.5086320 124.8918291 132.7141727 110.1052427 123.8264485
 130.4669720 110.6346836 122.8490912 130.3278237 112.0214455 123.9288742
 130.4732239 110.5118512 125.9072884 130.6384698 109.1097144 124.8409043
 128.4543187 109.6777845 123.7665598 128.2978951 111.0810287 124.8243450
 128.4262658 109.5342563 126.8125970 128.4063866 108.1507500 125.7225358
 126.2967068 110.3839578 125.7065596 126.2736052 108.9863389 126.7188530
 126.2883425 107.4839625 124.6523618 126.2823881 108.9294737 123.6352644
 124.0612357 110.4226140 125.5454736 122.7263203 109.8396983 124.5492458
 123.9920002 110.5277926 122.5044638 125.4057742 110.9365952 123.4819588
 124.0619731 112.6535757 124.7041851 122.6615120 112.2642478 123.7006421
 123.9709548 112.8957877 121.6552164 125.3615354 113.2877619 122.6695471
 124.0190479 115.0371915 123.8395017 122.6167292 114.6437877 122.8502742
 123.9255892 115.2218654 120.7893420 125.3180986 115.6332493 121.7923350
 123.9757766 117.4227647 122.9237785 122.5800217 117.0073078 121.9243739
 125.2809208 118.0044951 120.8703196 123.7850697 118.9498999 120.9783585
 123.8848333 117.5768719 119.8623785 124.3530542 106.8859619 126.0311353
 122.8106585 107.7665741 125.8407896 123.7636181 109.6870562 127.1381875
 125.2988946 108.8257973 127.2902741 124.0607371 107.0330534 128.5820741
 122.5804861 107.9910040 128.4215076 123.7405385 109.9443520 129.4994737
 125.1995863 108.9704758 129.6791921 123.9486746 107.3738178 131.1498960
 122.4939449 108.3661222 130.9738867 123.7201845 110.3352743 131.9286315
 125.1704190 109.3478191 132.1041142 123.9397463 107.8121405 133.6521609
 122.4880939 108.8013802 133.4786289 125.1683060 109.7766533 134.6051465
 123.7199238 109.3832630 135.5492081 123.7037895 110.7654462 134.4385654
 124.2800187 108.0872503 122.5203470 122.7819227 107.8082412 123.4199758
 125.2587693 106.0239571 123.0242213 123.7330396 105.8179919 122.4118611
 124.3920450 105.4287473 125.3898266 124.1297210 104.2131249 124.2064306
 121.9445027 106.2744618 124.8749114 122.0878803 104.7056479 125.6514419
 121.9743367 103.5561193 123.4837990 121.9639557 105.0797440 122.6117341
 119.8112828 105.7220481 123.5503643 119.7324417 104.1929961 124.4427257
 120.0271578 102.9446438 122.2593392 120.0727045 104.4771868 121.3937974
 117.7138941 103.4751213 123.0555216 117.8331443 103.4410585 121.2835859
 117.7661053 104.9973538 122.1363582 132.2980000 101.2070000 116.9240000
 121.8830000 113.1710000 126.2210000 128.1508435 115.6742258 127.1598018
 126.6216208 115.6833423 127.1598476 126.0569748 114.2613454 127.1589514
 124.5287844 114.2679019 127.1583803 123.9572430 112.8680000 127.1580000
 122.6030000 112.8680000 127.1580000 124.6074269 111.8357992 127.1574242
 121.6960000 113.7720000 124.3630000 121.3249627 113.7716082 125.4964083
 121.3219482 113.1556945 127.1604991 128.5200424 115.1398952 128.0432020
 128.5207372 115.1389623 126.2782715 126.2582267 116.2229011 126.2774328
 126.2571634 116.2229044 128.0423625 126.4231151 113.7174740 128.0379224
 126.4230361 113.7189952 126.2777225 124.1615586 114.7863983 126.2661832
 124.1617875 114.7858719 128.0516810 122.2107631 113.7613881 127.1580000
 130.8290000 104.0060000 140.4650000 132.2787774 111.1072005 141.8911438
 130.7696515 111.0217848 141.8042115 130.2099757 110.1186163 142.8952000
 128.7112477 110.0630210 142.7283451 128.0921405 109.1962373 143.8013042
 126.5858159 109.3281808 143.7267451 125.9680844 108.5270000 142.5780000
 124.4220000 108.5270000 142.5780000 123.8146962 109.9537263 142.5780000
 124.3125752 110.8802788 141.4654628 123.7578467 112.2937891 141.6880727
 124.2653630 113.2572987 140.6200697 123.7134345 114.6684171 140.8408251
 124.2219850 115.6086350 139.7456482 123.6752930 117.0237717 139.9227523
 124.1878685 117.9411607 138.8248112 123.8985855 107.8771111 143.9250708
 124.2174433 108.6950878 145.1694143 123.6753105 108.0554234 146.4438002
 124.1033195 108.9193543 147.6239314 123.5870424 108.3980436 148.9585243
 124.0749724 109.3118103 150.0822741 123.5855094 108.8330682 151.4394483
 124.0733657 109.7440515 152.5533876 123.8671881 107.6563906 141.4116574
 124.2207005 106.1705280 141.3014780 123.8269989 105.2358091 142.4499994
 122.3189551 105.2511187 142.7049279 121.6444240 104.6012166 141.5144070
 120.1360011 104.6719084 141.5230254 119.6558935 103.9763068 140.2515470
 118.1478128 103.9730083 140.1594067 130.3670000 104.2740000 139.5100000
 130.2900455 103.9033397 139.5176543 130.2075611 103.5714972 141.2575043
 132.5739754 111.5086320 142.8668291 132.7141727 110.1052427 141.8014485
 130.4669720 110.6346836 140.8240912 130.3278237 112.0214455 141.9038742
 130.4732239 110.5118512 143.8822884 130.6384698 109.1097144 142.8159043
 128.4543187 109.6777845 141.7415598 128.2978951 111.0810287 142.7993450
 128.4262658 109.5342563 144.7875970 128.4063866 108.1507500 143.6975358
 126.2967068 110.3839578 143.6815596 126.2736052 108.9863389 144.6938530
 126.2883425 107.4839625 142.6273618 126.2823881 108.9294737 141.6102644
 124.0612357 110.4226140 143.5204736 122.7263203 109.8396983 142.5242458
 123.9920002 110.5277926 140.4794638 125.4057742 110.9365952 141.4569588
 124.0619731 112.6535757 142.6791851 122.6615120 112.2642478 141.6756421
 123.9709548 112.8957877 139.6302164 125.3615354 113.2877619 140.6445471
 124.0190479 115.0371915 141.8145017 122.6167292 114.6437877 140.8252742
 123.9255892 115.2218654 138.7643420 125.3180986 115.6332493 139.7673350
 123.9757766 117.4227647 140.8987785 122.5800217 117.0073078 139.8993739
 125.2809208 118.0044951 138.8453196 123.7850697 118.9498999 138.9533585
 123.8848333 117.5768719 137.8373785 124.3530542 106.8859619 144.0061353
 122.8106585 107.7665741 143.8157896 123.7636181 109.6870562 145.1131875
 125.2988946 108.8257973 145.2652741 124.0607371 107.0330534 146.5570741
 122.5804861 107.9910040 146.3965076 123.7405385 109.9443520 147.4744737
 125.1995863 108.9704758 147.6541921 123.9486746 107.3738178 149.1248960
 122.4939449 108.3661222 148.9488867 123.7201845 110.3352743 149.9036315
 125.1704190 109.3478191 150.0791142 123.9397463 107.8121405 151.6271609
 122.4880939 108.8013802 151.4536289 125.1683060 109.7766533 152.5801465
 123.7199238 109.3832630 153.5242081 123.7037895 110.7654462 152.4135654
 124.2800187 108.0872503 140.4953470 122.7819227 107.8082412 141.3949758
 125.2587693 106.0239571 140.9992213 123.7330396 105.8179919 140.3868611
 124.3920450 105.4287473 143.3648266 124.1297210 104.2131249 142.1814306
 121.9445027 106.2744618 142.8499114 122.0878803 104.7056479 143.6264419
 121.9743367 103.5561193 141.4587990 121.9639557 105.0797440 140.5867341
 119.8112828 105.7220481 141.5253643 119.7324417 104.1929961 142.4177257
 120.0271578 102.9446438 140.2343392 120.0727045 104.4771868 139.3687974
 117.7138941 103.4751213 141.0305216 117.8331443 103.4410585 139.2585859
 117.7661053 104.9973538 140.1113582 132.2980000 101.2070000 134.8990000
 121.8830000 113.1710000 144.1960000 128.1508435 115.6742258 145.1348018
 126.6216208 115.6833423 145.1348476 126.0569748 114.2613454 145.1339514
 124.5287844 114.2679019 145.1333803 123.9572430 112.8680000 145.1330000
 122.6030000 112.8680000 145.1330000 124.6074269 111.8357992 145.1324242
 121.6960000 113.7720000 142.3380000 121.3249627 113.7716082 143.4714083
 121.3219482 113.1556945 145.1354991 128.5200424 115.1398952 146.0182020
 128.5207372 115.1389623 144.2532715 126.2582267 116.2229011 144.2524328
 126.2571634 116.2229044 146.0173625 126.4231151 113.7174740 146.0129224
 126.4230361 113.7189952 144.2527225 124.1615586 114.7863983 144.2411832
 124.1617875 114.7858719 146.0266810 122.2107631 113.7613881 145.1330000
 130.8290000 104.0060000 158.4400000 132.2787774 111.1072005 159.8661438
 130.7696515 111.0217848 159.7792115 130.2099757 110.1186163 160.8702000
 128.7112477 110.0630210 160.7033451 128.0921405 109.1962373 161.7763042
 126.5858159 109.3281808 161.7017451 125.9680844 108.5270000 160.5530000
 124.4220000 108.5270000 160.5530000 123.8146962 109.9537263 160.5530000
 124.3125752 110.8802788 159.4404628 123.7578467 112.2937891 159.6630727
 124.2653630 113.2572987 158.5950697 123.7134345 114.6684171 158.8158251
 124.2219850 115.6086350 157.7206482 123.6752930 117.0237717 157.8977523
 124.1878685 117.9411607 156.7998112 123.8985855 107.8771111 161.9000708
 124.2174433 108.6950878 163.1444143 123.6753105 108.0554234 164.4188002
 124.1033195 108.9193543 165.5989314 123.5870424 108.3980436 166.9335243
 124.0749724 109.3118103 168.0572741 123.5855094 108.8330682 169.4144483
 124.0733657 109.7440515 170.5283876 123.8671881 107.6563906 159.3866574
 124.2207005 106.1705280 159.2764780 123.8269989 105.2358091 160.4249994
 122.3189551 105.2511187 160.6799279 121.6444240 104.6012166 159.4894070
 120.1360011 104.6719084 159.4980254 119.6558935 103.9763068 158.2265470
 118.1478128 103.9730083 158.1344067 130.3670000 104.2740000 157.4850000
 130.2900455 103.9033397 157.4926543 130.2075611 103.5714972 159.2325043
 132.5739754 111.5086320 160.8418291 132.7141727 110.1052427 159.7764485
 130.4669720 110.6346836 158.7990912 130.3278237 112.0214455 159.8788742
 130.4732239 110.5118512 161.8572884 130.6384698 109.1097144 160.7909043
 128.4543187 109.6777845 159.7165598 128.2978951 111.0810287 160.7743450
 128.4262658 109.5342563 162.7625970 128.4063866 108.1507500 161.6725358
 126.2967068 110.3839578 161.6565596 126.2736052 108.9863389 162.6688530
 126.2883425 107.4839625 160.6023618 126.2823881 108.9294737 159.5852644
 124.0612357 110.4226140 161.4954736 122.7263203 109.8396983 160.4992458
 123.9920002 110.5277926 158.4544638 125.4057742 110.9365952 159.4319588
 124.0619731 112.6535757 160.6541851 122.6615120 112.2642478 159.6506421
 123.9709548 112.8957877 157.6052164 125.3615354 113.2877619 158.6195471
 124.0190479 115.0371915 159.7895017 122.6167292 114.6437877 158.8002742
 123.9255892 115.2218654 156.7393420 125.3180986 115.6332493 157.7423350
 123.9757766 117.4227647 158.8737785 122.5800217 117.0073078 157.8743739
 125.2809208 118.0044951 156.8203196 123.7850697 118.9498999 156.9283585
 123.8848333 117.5768719 155.8123785 124.3530542 106.8859619 161.9811353
 122.8106585 107.7665741 161.7907896 123.7636181 109.6870562 163.0881875
 125.2988946 108.8257973 163.2402741 124.0607371 107.0330534 164.5320741
 122.5804861 107.9910040 164.3715076 123.7405385 109.9443520 165.4494737
 125.1995863 108.9704758 165.6291921 123.9486746 107.3738178 167.0998960
 122.4939449 108.3661222 166.9238867 123.7201845 110.3352743 167.8786315
 125.1704190 109.3478191 168.0541142 123.9397463 107.8121405 169.6021609
 122.4880939 108.8013802 169.4286289 125.1683060 109.7766533 170.5551465
 123.7199238 109.3832630 171.4992081 123.7037895 110.7654462 170.3885654
 124.2800187 108.0872503 158.4703470 122.7819227 107.8082412 159.3699758
 125.2587693 106.0239571 158.9742213 123.7330396 105.8179919 158.3618611
 124.3920450 105.4287473 161.3398266 124.1297210 104.2131249 160.1564306
 121.9445027 106.2744618 160.8249114 122.0878803 104.7056479 161.6014419
 121.9743367 103.5561193 159.4337990 121.9639557 105.0797440 158.5617341
 119.8112828 105.7220481 159.5003643 119.7324417 104.1929961 160.3927257
 120.0271578 102.9446438 158.2093392 120.0727045 104.4771868 157.3437974
 117.7138941 103.4751213 159.0055216 117.8331443 103.4410585 157.2335859
 117.7661053 104.9973538 158.0863582 132.2980000 101.2070000 152.8740000
 121.8830000 113.1710000 162.1710000 128.1508435 115.6742258 163.1098018
 126.6216208 115.6833423 163.1098476 126.0569748 114.2613454 163.1089514
 124.5287844 114.2679019 163.1083803 123.9572430 112.8680000 163.1080000
 122.6030000 112.8680000 163.1080000 124.6074269 111.8357992 163.1074242
 121.6960000 113.7720000 160.3130000 121.3249627 113.7716082 161.4464083
 121.3219482 113.1556945 163.1104991 128.5200424 115.1398952 163.9932020
 128.5207372 115.1389623 162.2282715 126.2582267 116.2229011 162.2274328
 126.2571634 116.2229044 163.9923625 126.4231151 113.7174740 163.9879224
 126.4230361 113.7189952 162.2277225 124.1615586 114.7863983 162.2161832
 124.1617875 114.7858719 164.0016810 122.2107631 113.7613881 163.1080000
 130.8290000 104.0060000 176.4150000 132.2787774 111.1072005 177.8411438
 130.7696515 111.0217848 177.7542115 130.2099757 110.1186163 178.8452000
 128.7112477 110.0630210 178.6783451 128.0921405 109.1962373 179.7513042
 126.5858159 109.3281808 179.6767451 125.9680844 108.5270000 178.5280000
 124.4220000 108.5270000 178.5280000 123.8146962 109.9537263 178.5280000
 124.3125752 110.8802788 177.4154628 123.7578467 112.2937891 177.6380727
 124.2653630 113.2572987 176.5700697 123.7134345 114.6684171 176.7908251
 124.2219850 115.6086350 175.6956482 123.6752930 117.0237717 175.8727523
 124.1878685 117.9411607 174.7748112 123.8985855 107.8771111 179.8750708
 124.2174433 108.6950878 181.1194143 123.6753105 108.0554234 182.3938002
 124.1033195 108.9193543 183.5739314 123.5870424 108.3980436 184.9085243
 124.0749724 109.3118103 186.0322741 123.5855094 108.8330682 187.3894483
 124.0733657 109.7440515 188.5033876 123.8671881 107.6563906 177.3616574
 124.2207005 106.1705280 177.2514780 123.8269989 105.2358091 178.3999994
 122.3189551 105.2511187 178.6549279 121.6444240 104.6012166 177.4644070
 120.1360011 104.6719084 177.4730254 119.6558935 103.9763068 176.2015470
 118.1478128 103.9730083 176.1094067 130.3670000 104.2740000 175.4600000
 130.2900455 103.9033397 175.4676543 130.2075611 103.5714972 177.2075043
 132.5739754 111.5086320 178.8168291 132.7141727 110.1052427 177.7514485
 130.4669720 110.6346836 176.7740912 130.3278237 112.0214455 177.8538742
 130.4732239 110.5118512 179.8322884 130.6384698 109.1097144 178.7659043
 128.4543187 109.6777845 177.6915598 128.2978951 111.0810287 178.7493450
 128.4262658 109.5342563 180.7375970 128.4063866 108.1507500 179.6475358
 126.2967068 110.3839578 179.6315596 126.2736052 108.9863389 180.6438530
 126.2883425 107.4839625 178.5773618 126.2823881 108.9294737 177.5602644
 124.0612357 110.4226140 179.4704736 122.7263203 109.8396983 178.4742458
 123.9920002 110.5277926 176.4294638 125.4057742 110.9365952 177.4069588
 124.0619731 112.6535757 178.6291851 122.6615120 112.2642478 177.6256421
 123.9709548 112.8957877 175.5802164 125.3615354 113.2877619 176.5945471
 124.0190479 115.0371915 177.7645017 122.6167292 114.6437877 176.7752742
 123.9255892 115.2218654 174.7143420 125.3180986 115.6332493 175.7173350
 123.9757766 117.4227647 176.8487785 122.5800217 117.0073078 175.8493739
 125.2809208 118.0044951 174.7953196 123.7850697 118.9498999 174.9033585
 123.8848333 117.5768719 173.7873785 124.3530542 106.8859619 179.9561353
 122.8106585 107.7665741 179.7657896 123.7636181 109.6870562 181.0631875
 125.2988946 108.8257973 181.2152741 124.0607371 107.0330534 182.5070741
 122.5804861 107.9910040 182.3465076 123.7405385 109.9443520 183.4244737
 125.1995863 108.9704758 183.6041921 123.9486746 107.3738178 185.0748960
 122.4939449 108.3661222 184.8988867 123.7201845 110.3352743 185.8536315
 125.1704190 109.3478191 186.0291142 123.9397463 107.8121405 187.5771609
 122.4880939 108.8013802 187.4036289 125.1683060 109.7766533 188.5301465
 123.7199238 109.3832630 189.4742081 123.7037895 110.7654462 188.3635654
 124.2800187 108.0872503 176.4453470 122.7819227 107.8082412 177.3449758
 125.2587693 106.0239571 176.9492213 123.7330396 105.8179919 176.3368611
 124.3920450 105.4287473 179.3148266 124.1297210 104.2131249 178.1314306
 121.9445027 106.2744618 178.7999114 122.0878803 104.7056479 179.5764419
 121.9743367 103.5561193 177.4087990 121.9639557 105.0797440 176.5367341
 119.8112828 105.7220481 177.4753643 119.7324417 104.1929961 178.3677257
 120.0271578 102.9446438 176.1843392 120.0727045 104.4771868 175.3187974
 117.7138941 103.4751213 176.9805216 117.8331443 103.4410585 175.2085859
 117.7661053 104.9973538 176.0613582 132.2980000 101.2070000 170.8490000
 121.8830000 113.1710000 180.1460000 128.1508435 115.6742258 181.0848018
 126.6216208 115.6833423 181.0848476 126.0569748 114.2613454 181.0839514
 124.5287844 114.2679019 181.0833803 123.9572430 112.8680000 181.0830000
 122.6030000 112.8680000 181.0830000 124.6074269 111.8357992 181.0824242
 121.6960000 113.7720000 178.2880000 121.3249627 113.7716082 179.4214083
 121.3219482 113.1556945 181.0854991 128.5200424 115.1398952 181.9682020
 128.5207372 115.1389623 180.2032715 126.2582267 116.2229011 180.2024328
 126.2571634 116.2229044 181.9673625 126.4231151 113.7174740 181.9629224
 126.4230361 113.7189952 180.2027225 124.1615586 114.7863983 180.1911832
 124.1617875 114.7858719 181.9766810 122.2107631 113.7613881 181.0830000
 130.8290000 122.6100000  68.5660000 132.2787774 129.7112005  69.9921438
 130.7696515 129.6257848  69.9052115 130.2099757 128.7226163  70.9962000
 128.7112477 128.6670210  70.8293451 128.0921405 127.8002373  71.9023042
 126.5858159 127.9321808  71.8277451 125.9680844 127.1310000  70.6790000
 124.4220000 127.1310000  70.6790000 123.8146962 128.5577263  70.6790000
 124.3125752 129.4842788  69.5664628 123.7578467 130.8977891  69.7890727
 124.2653630 131.8612987  68.7210697 123.7134345 133.2724171  68.9418251
 124.2219850 134.2126350  67.8466482 123.6752930 135.6277717  68.0237523
 124.1878685 136.5451607  66.9258112 123.8985855 126.4811111  72.0260708
 124.2174433 127.2990878  73.2704143 123.6753105 126.6594234  74.5448002
 124.1033195 127.5233543  75.7249314 123.5870424 127.0020436  77.0595243
 124.0749724 127.9158103  78.1832741 123.5855094 127.4370682  79.5404483
 124.0733657 128.3480515  80.6543876 123.8671881 126.2603906  69.5126574
 124.2207005 124.7745280  69.4024780 123.8269989 123.8398091  70.5509994
 122.3189551 123.8551187  70.8059279 121.6444240 123.2052166  69.6154070
 120.1360011 123.2759084  69.6240254 119.6558935 122.5803068  68.3525470
 118.1478128 122.5770083  68.2604067 130.3670000 122.8780000  67.6110000
 130.2900455 122.5073397  67.6186543 130.2075611 122.1754972  69.3585043
 132.5739754 130.1126320  70.9678291 132.7141727 128.7092427  69.9024485
 130.4669720 129.2386836  68.9250912 130.3278237 130.6254455  70.0048742
 130.4732239 129.1158512  71.9832884 130.6384698 127.7137144  70.9169043
 128.4543187 128.2817845  69.8425598 128.2978951 129.6850287  70.9003450
 128.4262658 128.1382563  72.8885970 128.4063866 126.7547500  71.7985358
 126.2967068 128.9879578  71.7825596 126.2736052 127.5903389  72.7948530
 126.2883425 126.0879625  70.7283618 126.2823881 127.5334737  69.7112644
 124.0612357 129.0266140  71.6214736 122.7263203 128.4436983  70.6252458
 123.9920002 129.1317926  68.5804638 125.4057742 129.5405952  69.5579588
 124.0619731 131.2575757  70.7801851 122.6615120 130.8682478  69.7766421
 123.9709548 131.4997877  67.7312164 125.3615354 131.8917619  68.7455471
 124.0190479 133.6411915  69.9155017 122.6167292 133.2477877  68.9262742
 123.9255892 133.8258654  66.8653420 125.3180986 134.2372493  67.8683350
 123.9757766 136.0267647  68.9997785 122.5800217 135.6113078  68.0003739
 125.2809208 136.6084951  66.9463196 123.7850697 137.5538999  67.0543585
 123.8848333 136.1808719  65.9383785 124.3530542 125.4899619  72.1071353
 122.8106585 126.3705741  71.9167896 123.7636181 128.2910562  73.2141875
 125.2988946 127.4297973  73.3662741 124.0607371 125.6370534  74.6580741
 122.5804861 126.5950040  74.4975076 123.7405385 128.5483520  75.5754737
 125.1995863 127.5744758  75.7551921 123.9486746 125.9778178  77.2258960
 122.4939449 126.9701222  77.0498867 123.7201845 128.9392743  78.0046315
 125.1704190 127.9518191  78.1801142 123.9397463 126.4161405  79.7281609
 122.4880939 127.4053802  79.5546289 125.1683060 128.3806533  80.6811465
 123.7199238 127.9872630  81.6252081 123.7037895 129.3694462  80.5145654
 124.2800187 126.6912503  68.5963470 122.7819227 126.4122412  69.4959758
 125.2587693 124.6279571  69.1002213 123.7330396 124.4219919  68.4878611
 124.3920450 124.0327473  71.4658266 124.1297210 122.8171249  70.2824306
 121.9445027 124.8784618  70.9509114 122.0878803 123.3096479  71.7274419
 121.9743367 122.1601193  69.5597990 121.9639557 123.6837440  68.6877341
 119.8112828 124.3260481  69.6263643 119.7324417 122.7969961  70.5187257
 120.0271578 121.5486438  68.3353392 120.0727045 123.0811868  67.4697974
 117.7138941 122.0791213  69.1315216 117.8331443 122.0450585  67.3595859
 117.7661053 123.6013538  68.2123582 132.2980000 119.8110000  63.0000000
 121.8830000 131.7750000  72.2970000 128.1508435 134.2782258  73.2358018
 126.6216208 134.2873423  73.2358476 126.0569748 132.8653454  73.2349514
 124.5287844 132.8719019  73.2343803 123.9572430 131.4720000  73.2340000
 122.6030000 131.4720000  73.2340000 124.6074269 130.4397992  73.2334242
 121.6960000 132.3760000  70.4390000 121.3249627 132.3756082  71.5724083
 121.3219482 131.7596945  73.2364991 128.5200424 133.7438952  74.1192020
 128.5207372 133.7429623  72.3542715 126.2582267 134.8269011  72.3534328
 126.2571634 134.8269044  74.1183625 126.4231151 132.3214740  74.1139224
 126.4230361 132.3229952  72.3537225 124.1615586 133.3903983  72.3421832
 124.1617875 133.3898719  74.1276810 122.2107631 132.3653881  73.2340000
 130.8290000 122.6100000  86.5410000 132.2787774 129.7112005  87.9671438
 130.7696515 129.6257848  87.8802115 130.2099757 128.7226163  88.9712000
 128.7112477 128.6670210  88.8043451 128.0921405 127.8002373  89.8773042
 126.5858159 127.9321808  89.8027451 125.9680844 127.1310000  88.6540000
 124.4220000 127.1310000  88.6540000 123.8146962 128.5577263  88.6540000
 124.3125752 129.4842788  87.5414628 123.7578467 130.8977891  87.7640727
 124.2653630 131.8612987  86.6960697 123.7134345 133.2724171  86.9168251
 124.2219850 134.2126350  85.8216482 123.6752930 135.6277717  85.9987523
 124.1878685 136.5451607  84.9008112 123.8985855 126.4811111  90.0010708
 124.2174433 127.2990878  91.2454143 123.6753105 126.6594234  92.5198002
 124.1033195 127.5233543  93.6999314 123.5870424 127.0020436  95.0345243
 124.0749724 127.9158103  96.1582741 123.5855094 127.4370682  97.5154483
 124.0733657 128.3480515  98.6293876 123.8671881 126.2603906  87.4876574
 124.2207005 124.7745280  87.3774780 123.8269989 123.8398091  88.5259994
 122.3189551 123.8551187  88.7809279 121.6444240 123.2052166  87.5904070
 120.1360011 123.2759084  87.5990254 119.6558935 122.5803068  86.3275470
 118.1478128 122.5770083  86.2354067 130.3670000 122.8780000  85.5860000
 130.2900455 122.5073397  85.5936543 130.2075611 122.1754972  87.3335043
 132.5739754 130.1126320  88.9428291 132.7141727 128.7092427  87.8774485
 130.4669720 129.2386836  86.9000912 130.3278237 130.6254455  87.9798742
 130.4732239 129.1158512  89.9582884 130.6384698 127.7137144  88.8919043
 128.4543187 128.2817845  87.8175598 128.2978951 129.6850287  88.8753450
 128.4262658 128.1382563  90.8635970 128.4063866 126.7547500  89.7735358
 126.2967068 128.9879578  89.7575596 126.2736052 127.5903389  90.7698530
 126.2883425 126.0879625  88.7033618 126.2823881 127.5334737  87.6862644
 124.0612357 129.0266140  89.5964736 122.7263203 128.4436983  88.6002458
 123.9920002 129.1317926  86.5554638 125.4057742 129.5405952  87.5329588
 124.0619731 131.2575757  88.7551851 122.6615120 130.8682478  87.7516421
 123.9709548 131.4997877  85.7062164 125.3615354 131.8917619  86.7205471
 124.0190479 133.6411915  87.8905017 122.6167292 133.2477877  86.9012742
 123.9255892 133.8258654  84.8403420 125.3180986 134.2372493  85.8433350
 123.9757766 136.0267647  86.9747785 122.5800217 135.6113078  85.9753739
 125.2809208 136.6084951  84.9213196 123.7850697 137.5538999  85.0293585
 123.8848333 136.1808719  83.9133785 124.3530542 125.4899619  90.0821353
 122.8106585 126.3705741  89.8917896 123.7636181 128.2910562  91.1891875
 125.2988946 127.4297973  91.3412741 124.0607371 125.6370534  92.6330741
 122.5804861 126.5950040  92.4725076 123.7405385 128.5483520  93.5504737
 125.1995863 127.5744758  93.7301921 123.9486746 125.9778178  95.2008960
 122.4939449 126.9701222  95.0248867 123.7201845 128.9392743  95.9796315
 125.1704190 127.9518191  96.1551142 123.9397463 126.4161405  97.7031609
 122.4880939 127.4053802  97.5296289 125.1683060 128.3806533  98.6561465
 123.7199238 127.9872630  99.6002081 123.7037895 129.3694462  98.4895654
 124.2800187 126.6912503  86.5713470 122.7819227 126.4122412  87.4709758
 125.2587693 124.6279571  87.0752213 123.7330396 124.4219919  86.4628611
 124.3920450 124.0327473  89.4408266 124.1297210 122.8171249  88.2574306
 121.9445027 124.8784618  88.9259114 122.0878803 123.3096479  89.7024419
 121.9743367 122.1601193  87.5347990 121.9639557 123.6837440  86.6627341
 119.8112828 124.3260481  87.6013643 119.7324417 122.7969961  88.4937257
 120.0271578 121.5486438  86.3103392 120.0727045 123.0811868  85.4447974
 117.7138941 122.0791213  87.1065216 117.8331443 122.0450585  85.3345859
 117.7661053 123.6013538  86.1873582 132.2980000 119.8110000  80.9750000
 121.8830000 131.7750000  90.2720000 128.1508435 134.2782258  91.2108018
 126.6216208 134.2873423  91.2108476 126.0569748 132.8653454  91.2099514
 124.5287844 132.8719019  91.2093803 123.9572430 131.4720000  91.2090000
 122.6030000 131.4720000  91.2090000 124.6074269 130.4397992  91.2084242
 121.6960000 132.3760000  88.4140000 121.3249627 132.3756082  89.5474083
 121.3219482 131.7596945  91.2114991 128.5200424 133.7438952  92.0942020
 128.5207372 133.7429623  90.3292715 126.2582267 134.8269011  90.3284328
 126.2571634 134.8269044  92.0933625 126.4231151 132.3214740  92.0889224
 126.4230361 132.3229952  90.3287225 124.1615586 133.3903983  90.3171832
 124.1617875 133.3898719  92.1026810 122.2107631 132.3653881  91.2090000
 130.8290000 122.6100000 104.5160000 132.2787774 129.7112005 105.9421438
 130.7696515 129.6257848 105.8552115 130.2099757 128.7226163 106.9462000
 128.7112477 128.6670210 106.7793451 128.0921405 127.8002373 107.8523042
 126.5858159 127.9321808 107.7777451 125.9680844 127.1310000 106.6290000
 124.4220000 127.1310000 106.6290000 123.8146962 128.5577263 106.6290000
 124.3125752 129.4842788 105.5164628 123.7578467 130.8977891 105.7390727
 124.2653630 131.8612987 104.6710697 123.7134345 133.2724171 104.8918251
 124.2219850 134.2126350 103.7966482 123.6752930 135.6277717 103.9737523
 124.1878685 136.5451607 102.8758112 123.8985855 126.4811111 107.9760708
 124.2174433 127.2990878 109.2204143 123.6753105 126.6594234 110.4948002
 124.1033195 127.5233543 111.6749314 123.5870424 127.0020436 113.0095243
 124.0749724 127.9158103 114.1332741 123.5855094 127.4370682 115.4904483
 124.0733657 128.3480515 116.6043876 123.8671881 126.2603906 105.4626574
 124.2207005 124.7745280 105.3524780 123.8269989 123.8398091 106.5009994
 122.3189551 123.8551187 106.7559279 121.6444240 123.2052166 105.5654070
 120.1360011 123.2759084 105.5740254 119.6558935 122.5803068 104.3025470
 118.1478128 122.5770083 104.2104067 130.3670000 122.8780000 103.5610000
 130.2900455 122.5073397 103.5686543 130.2075611 122.1754972 105.3085043
 132.5739754 130.1126320 106.9178291 132.7141727 128.7092427 105.8524485
 130.4669720 129.2386836 104.8750912 130.3278237 130.6254455 105.9548742
 130.4732239 129.1158512 107.9332884 130.6384698 127.7137144 106.8669043
 128.4543187 128.2817845 105.7925598 128.2978951 129.6850287 106.8503450
 128.4262658 128.1382563 108.8385970 128.4063866 126.7547500 107.7485358
 126.2967068 128.9879578 107.7325596 126.2736052 127.5903389 108.7448530
 126.2883425 126.0879625 106.6783618 126.2823881 127.5334737 105.6612644
 124.0612357 129.0266140 107.5714736 122.7263203 128.4436983 106.5752458
 123.9920002 129.1317926 104.5304638 125.4057742 129.5405952 105.5079588
 124.0619731 131.2575757 106.7301851 122.6615120 130.8682478 105.7266421
 123.9709548 131.4997877 103.6812164 125.3615354 131.8917619 104.6955471
 124.0190479 133.6411915 105.8655017 122.6167292 133.2477877 104.8762742
 123.9255892 133.8258654 102.8153420 125.3180986 134.2372493 103.8183350
 123.9757766 136.0267647 104.9497785 122.5800217 135.6113078 103.9503739
 125.2809208 136.6084951 102.8963196 123.7850697 137.5538999 103.0043585
 123.8848333 136.1808719 101.8883785 124.3530542 125.4899619 108.0571353
 122.8106585 126.3705741 107.8667896 123.7636181 128.2910562 109.1641875
 125.2988946 127.4297973 109.3162741 124.0607371 125.6370534 110.6080741
 122.5804861 126.5950040 110.4475076 123.7405385 128.5483520 111.5254737
 125.1995863 127.5744758 111.7051921 123.9486746 125.9778178 113.1758960
 122.4939449 126.9701222 112.9998867 123.7201845 128.9392743 113.9546315
 125.1704190 127.9518191 114.1301142 123.9397463 126.4161405 115.6781609
 122.4880939 127.4053802 115.5046289 125.1683060 128.3806533 116.6311465
 123.7199238 127.9872630 117.5752081 123.7037895 129.3694462 116.4645654
 124.2800187 126.6912503 104.5463470 122.7819227 126.4122412 105.4459758
 125.2587693 124.6279571 105.0502213 123.7330396 124.4219919 104.4378611
 124.3920450 124.0327473 107.4158266 124.1297210 122.8171249 106.2324306
 121.9445027 124.8784618 106.9009114 122.0878803 123.3096479 107.6774419
 121.9743367 122.1601193 105.5097990 121.9639557 123.6837440 104.6377341
 119.8112828 124.3260481 105.5763643 119.7324417 122.7969961 106.4687257
 120.0271578 121.5486438 104.2853392 120.0727045 123.0811868 103.4197974
 117.7138941 122.0791213 105.0815216 117.8331443 122.0450585 103.3095859
 117.7661053 123.6013538 104.1623582 132.2980000 119.8110000  98.9500000
 121.8830000 131.7750000 108.2470000 128.1508435 134.2782258 109.1858018
 126.6216208 134.2873423 109.1858476 126.0569748 132.8653454 109.1849514
 124.5287844 132.8719019 109.1843803 123.9572430 131.4720000 109.1840000
 122.6030000 131.4720000 109.1840000 124.6074269 130.4397992 109.1834242
 121.6960000 132.3760000 106.3890000 121.3249627 132.3756082 107.5224083
 121.3219482 131.7596945 109.1864991 128.5200424 133.7438952 110.0692020
 128.5207372 133.7429623 108.3042715 126.2582267 134.8269011 108.3034328
 126.2571634 134.8269044 110.0683625 126.4231151 132.3214740 110.0639224
 126.4230361 132.3229952 108.3037225 124.1615586 133.3903983 108.2921832
 124.1617875 133.3898719 110.0776810 122.2107631 132.3653881 109.1840000
 130.8290000 122.6100000 122.4900000 132.2787774 129.7112005 123.9161438
 130.7696515 129.6257848 123.8292115 130.2099757 128.7226163 124.9202000
 128.7112477 128.6670210 124.7533451 128.0921405 127.8002373 125.8263042
 126.5858159 127.9321808 125.7517451 125.9680844 127.1310000 124.6030000
 124.4220000 127.1310000 124.6030000 123.8146962 128.5577263 124.6030000
 124.3125752 129.4842788 123.4904628 123.7578467 130.8977891 123.7130727
 124.2653630 131.8612987 122.6450697 123.7134345 133.2724171 122.8658251
 124.2219850 134.2126350 121.7706482 123.6752930 135.6277717 121.9477523
 124.1878685 136.5451607 120.8498112 123.8985855 126.4811111 125.9500708
 124.2174433 127.2990878 127.1944143 123.6753105 126.6594234 128.4688002
 124.1033195 127.5233543 129.6489314 123.5870424 127.0020436 130.9835243
 124.0749724 127.9158103 132.1072741 123.5855094 127.4370682 133.4644483
 124.0733657 128.3480515 134.5783876 123.8671881 126.2603906 123.4366574
 124.2207005 124.7745280 123.3264780 123.8269989 123.8398091 124.4749994
 122.3189551 123.8551187 124.7299279 121.6444240 123.2052166 123.5394070
 120.1360011 123.2759084 123.5480254 119.6558935 122.5803068 122.2765470
 118.1478128 122.5770083 122.1844067 130.3670000 122.8780000 121.5350000
 130.2900455 122.5073397 121.5426543 130.2075611 122.1754972 123.2825043
 132.5739754 130.1126320 124.8918291 132.7141727 128.7092427 123.8264485
 130.4669720 129.2386836 122.8490912 130.3278237 130.6254455 123.9288742
 130.4732239 129.1158512 125.9072884 130.6384698 127.7137144 124.8409043
 128.4543187 128.2817845 123.7665598 128.2978951 129.6850287 124.8243450
 128.4262658 128.1382563 126.8125970 128.4063866 126.7547500 125.7225358
 126.2967068 128.9879578 125.7065596 126.2736052 127.5903389 126.7188530
 126.2883425 126.0879625 124.6523618 126.2823881 127.5334737 123.6352644
 124.0612357 129.0266140 125.5454736 122.7263203 128.4436983 124.5492458
 123.9920002 129.1317926 122.5044638 125.4057742 129.5405952 123.4819588
 124.0619731 131.2575757 124.7041851 122.6615120 130.8682478 123.7006421
 123.9709548 131.4997877 121.6552164 125.3615354 131.8917619 122.6695471
 124.0190479 133.6411915 123.8395017 122.6167292 133.2477877 122.8502742
 123.9255892 133.8258654 120.7893420 125.3180986 134.2372493 121.7923350
 123.9757766 136.0267647 122.9237785 122.5800217 135.6113078 121.9243739
 125.2809208 136.6084951 120.8703196 123.7850697 137.5538999 120.9783585
 123.8848333 136.1808719 119.8623785 124.3530542 125.4899619 126.0311353
 122.8106585 126.3705741 125.8407896 123.7636181 128.2910562 127.1381875
 125.2988946 127.4297973 127.2902741 124.0607371 125.6370534 128.5820741
 122.5804861 126.5950040 128.4215076 123.7405385 128.5483520 129.4994737
 125.1995863 127.5744758 129.6791921 123.9486746 125.9778178 131.1498960
 122.4939449 126.9701222 130.9738867 123.7201845 128.9392743 131.9286315
 125.1704190 127.9518191 132.1041142 123.9397463 126.4161405 133.6521609
 122.4880939 127.4053802 133.4786289 125.1683060 128.3806533 134.6051465
 123.7199238 127.9872630 135.5492081 123.7037895 129.3694462 134.4385654
 124.2800187 126.6912503 122.5203470 122.7819227 126.4122412 123.4199758
 125.2587693 124.6279571 123.0242213 123.7330396 124.4219919 122.4118611
 124.3920450 124.0327473 125.3898266 124.1297210 122.8171249 124.2064306
 121.9445027 124.8784618 124.8749114 122.0878803 123.3096479 125.6514419
 121.9743367 122.1601193 123.4837990 121.9639557 123.6837440 122.6117341
 119.8112828 124.3260481 123.5503643 119.7324417 122.7969961 124.4427257
 120.0271578 121.5486438 122.2593392 120.0727045 123.0811868 121.3937974
 117.7138941 122.0791213 123.0555216 117.8331443 122.0450585 121.2835859
 117.7661053 123.6013538 122.1363582 132.2980000 119.8110000 116.9240000
 121.8830000 131.7750000 126.2210000 128.1508435 134.2782258 127.1598018
 126.6216208 134.2873423 127.1598476 126.0569748 132.8653454 127.1589514
 124.5287844 132.8719019 127.1583803 123.9572430 131.4720000 127.1580000
 122.6030000 131.4720000 127.1580000 124.6074269 130.4397992 127.1574242
 121.6960000 132.3760000 124.3630000 121.3249627 132.3756082 125.4964083
 121.3219482 131.7596945 127.1604991 128.5200424 133.7438952 128.0432020
 128.5207372 133.7429623 126.2782715 126.2582267 134.8269011 126.2774328
 126.2571634 134.8269044 128.0423625 126.4231151 132.3214740 128.0379224
 126.4230361 132.3229952 126.2777225 124.1615586 133.3903983 126.2661832
 124.1617875 133.3898719 128.0516810 122.2107631 132.3653881 127.1580000
 130.8290000 122.6100000 140.4650000 132.2787774 129.7112005 141.8911438
 130.7696515 129.6257848 141.8042115 130.2099757 128.7226163 142.8952000
 128.7112477 128.6670210 142.7283451 128.0921405 127.8002373 143.8013042
 126.5858159 127.9321808 143.7267451 125.9680844 127.1310000 142.5780000
 124.4220000 127.1310000 142.5780000 123.8146962 128.5577263 142.5780000
 124.3125752 129.4842788 141.4654628 123.7578467 130.8977891 141.6880727
 124.2653630 131.8612987 140.6200697 123.7134345 133.2724171 140.8408251
 124.2219850 134.2126350 139.7456482 123.6752930 135.6277717 139.9227523
 124.1878685 136.5451607 138.8248112 123.8985855 126.4811111 143.9250708
 124.2174433 127.2990878 145.1694143 123.6753105 126.6594234 146.4438002
 124.1033195 127.5233543 147.6239314 123.5870424 127.0020436 148.9585243
 124.0749724 127.9158103 150.0822741 123.5855094 127.4370682 151.4394483
 124.0733657 128.3480515 152.5533876 123.8671881 126.2603906 141.4116574
 124.2207005 124.7745280 141.3014780 123.8269989 123.8398091 142.4499994
 122.3189551 123.8551187 142.7049279 121.6444240 123.2052166 141.5144070
 120.1360011 123.2759084 141.5230254 119.6558935 122.5803068 140.2515470
 118.1478128 122.5770083 140.1594067 130.3670000 122.8780000 139.5100000
 130.2900455 122.5073397 139.5176543 130.2075611 122.1754972 141.2575043
 132.5739754 130.1126320 142.8668291 132.7141727 128.7092427 141.8014485
 130.4669720 129.2386836 140.8240912 130.3278237 130.6254455 141.9038742
 130.4732239 129.1158512 143.8822884 130.6384698 127.7137144 142.8159043
 128.4543187 128.2817845 141.7415598 128.2978951 129.6850287 142.7993450
 128.4262658 128.1382563 144.7875970 128.4063866 126.7547500 143.6975358
 126.2967068 128.9879578 143.6815596 126.2736052 127.5903389 144.6938530
 126.2883425 126.0879625 142.6273618 126.2823881 127.5334737 141.6102644
 124.0612357 129.0266140 143.5204736 122.7263203 128.4436983 142.5242458
 123.9920002 129.1317926 140.4794638 125.4057742 129.5405952 141.4569588
 124.0619731 131.2575757 142.6791851 122.6615120 130.8682478 141.6756421
 123.9709548 131.4997877 139.6302164 125.3615354 131.8917619 140.6445471
 124.0190479 133.6411915 141.8145017 122.6167292 133.2477877 140.8252742
 123.9255892 133.8258654 138.7643420 125.3180986 134.2372493 139.7673350
 123.9757766 136.0267647 140.8987785 122.5800217 135.6113078 139.8993739
 125.2809208 136.6084951 138.8453196 123.7850697 137.5538999 138.9533585
 123.8848333 136.1808719 137.8373785 124.3530542 125.4899619 144.0061353
 122.8106585 126.3705741 143.8157896 123.7636181 128.2910562 145.1131875
 125.2988946 127.4297973 145.2652741 124.0607371 125.6370534 146.5570741
 122.5804861 126.5950040 146.3965076 123.7405385 128.5483520 147.4744737
 125.1995863 127.5744758 147.6541921 123.9486746 125.9778178 149.1248960
 122.4939449 126.9701222 148.9488867 123.7201845 128.9392743 149.9036315
 125.1704190 127.9518191 150.0791142 123.9397463 126.4161405 151.6271609
 122.4880939 127.4053802 151.4536289 125.1683060 128.3806533 152.5801465
 123.7199238 127.9872630 153.5242081 123.7037895 129.3694462 152.4135654
 124.2800187 126.6912503 140.4953470 122.7819227 126.4122412 141.3949758
 125.2587693 124.6279571 140.9992213 123.7330396 124.4219919 140.3868611
 124.3920450 124.0327473 143.3648266 124.1297210 122.8171249 142.1814306
 121.9445027 124.8784618 142.8499114 122.0878803 123.3096479 143.6264419
 121.9743367 122.1601193 141.4587990 121.9639557 123.6837440 140.5867341
 119.8112828 124.3260481 141.5253643 119.7324417 122.7969961 142.4177257
 120.0271578 121.5486438 140.2343392 120.0727045 123.0811868 139.3687974
 117.7138941 122.0791213 141.0305216 117.8331443 122.0450585 139.2585859
 117.7661053 123.6013538 140.1113582 132.2980000 119.8110000 134.8990000
 121.8830000 131.7750000 144.1960000 128.1508435 134.2782258 145.1348018
 126.6216208 134.2873423 145.1348476 126.0569748 132.8653454 145.1339514
 124.5287844 132.8719019 145.1333803 123.9572430 131.4720000 145.1330000
 122.6030000 131.4720000 145.1330000 124.6074269 130.4397992 145.1324242
 121.6960000 132.3760000 142.3380000 121.3249627 132.3756082 143.4714083
 121.3219482 131.7596945 145.1354991 128.5200424 133.7438952 146.0182020
 128.5207372 133.7429623 144.2532715 126.2582267 134.8269011 144.2524328
 126.2571634 134.8269044 146.0173625 126.4231151 132.3214740 146.0129224
 126.4230361 132.3229952 144.2527225 124.1615586 133.3903983 144.2411832
 124.1617875 133.3898719 146.0266810 122.2107631 132.3653881 145.1330000
 130.8290000 122.6100000 158.4400000 132.2787774 129.7112005 159.8661438
 130.7696515 129.6257848 159.7792115 130.2099757 128.7226163 160.8702000
 128.7112477 128.6670210 160.7033451 128.0921405 127.8002373 161.7763042
 126.5858159 127.9321808 161.7017451 125.9680844 127.1310000 160.5530000
 124.4220000 127.1310000 160.5530000 123.8146962 128.5577263 160.5530000
 124.3125752 129.4842788 159.4404628 123.7578467 130.8977891 159.6630727
 124.2653630 131.8612987 158.5950697 123.7134345 133.2724171 158.8158251
 124.2219850 134.2126350 157.7206482 123.6752930 135.6277717 157.8977523
 124.1878685 136.5451607 156.7998112 123.8985855 126.4811111 161.9000708
 124.2174433 127.2990878 163.1444143 123.6753105 126.6594234 164.4188002
 124.1033195 127.5233543 165.5989314 123.5870424 127.0020436 166.9335243
 124.0749724 127.9158103 168.0572741 123.5855094 127.4370682 169.4144483
 124.0733657 128.3480515 170.5283876 123.8671881 126.2603906 159.3866574
 124.2207005 124.7745280 159.2764780 123.8269989 123.8398091 160.4249994
 122.3189551 123.8551187 160.6799279 121.6444240 123.2052166 159.4894070
 120.1360011 123.2759084 159.4980254 119.6558935 122.5803068 158.2265470
 118.1478128 122.5770083 158.1344067 130.3670000 122.8780000 157.4850000
 130.2900455 122.5073397 157.4926543 130.2075611 122.1754972 159.2325043
 132.5739754 130.1126320 160.8418291 132.7141727 128.7092427 159.7764485
 130.4669720 129.2386836 158.7990912 130.3278237 130.6254455 159.8788742
 130.4732239 129.1158512 161.8572884 130.6384698 127.7137144 160.7909043
 128.4543187 128.2817845 159.7165598 128.2978951 129.6850287 160.7743450
 128.4262658 128.1382563 162.7625970 128.4063866 126.7547500 161.6725358
 126.2967068 128.9879578 161.6565596 126.2736052 127.5903389 162.6688530
 126.2883425 126.0879625 160.6023618 126.2823881 127.5334737 159.5852644
 124.0612357 129.0266140 161.4954736 122.7263203 128.4436983 160.4992458
 123.9920002 129.1317926 158.4544638 125.4057742 129.5405952 159.4319588
 124.0619731 131.2575757 160.6541851 122.6615120 130.8682478 159.6506421
 123.9709548 131.4997877 157.6052164 125.3615354 131.8917619 158.6195471
 124.0190479 133.6411915 159.7895017 122.6167292 133.2477877 158.8002742
 123.9255892 133.8258654 156.7393420 125.3180986 134.2372493 157.7423350
 123.9757766 136.0267647 158.8737785 122.5800217 135.6113078 157.8743739
 125.2809208 136.6084951 156.8203196 123.7850697 137.5538999 156.9283585
 123.8848333 136.1808719 155.8123785 124.3530542 125.4899619 161.9811353
 122.8106585 126.3705741 161.7907896 123.7636181 128.2910562 163.0881875
 125.2988946 127.4297973 163.2402741 124.0607371 125.6370534 164.5320741
 122.5804861 126.5950040 164.3715076 123.7405385 128.5483520 165.4494737
 125.1995863 127.5744758 165.6291921 123.9486746 125.9778178 167.0998960
 122.4939449 126.9701222 166.9238867 123.7201845 128.9392743 167.8786315
 125.1704190 127.9518191 168.0541142 123.9397463 126.4161405 169.6021609
 122.4880939 127.4053802 169.4286289 125.1683060 128.3806533 170.5551465
 123.7199238 127.9872630 171.4992081 123.7037895 129.3694462 170.3885654
 124.2800187 126.6912503 158.4703470 122.7819227 126.4122412 159.3699758
 125.2587693 124.6279571 158.9742213 123.7330396 124.4219919 158.3618611
 124.3920450 124.0327473 161.3398266 124.1297210 122.8171249 160.1564306
 121.9445027 124.8784618 160.8249114 122.0878803 123.3096479 161.6014419
 121.9743367 122.1601193 159.4337990 121.9639557 123.6837440 158.5617341
 119.8112828 124.3260481 159.5003643 119.7324417 122.7969961 160.3927257
 120.0271578 121.5486438 158.2093392 120.0727045 123.0811868 157.3437974
 117.7138941 122.0791213 159.0055216 117.8331443 122.0450585 157.2335859
 117.7661053 123.6013538 158.0863582 132.2980000 119.8110000 152.8740000
 121.8830000 131.7750000 162.1710000 128.1508435 134.2782258 163.1098018
 126.6216208 134.2873423 163.1098476 126.0569748 132.8653454 163.1089514
 124.5287844 132.8719019 163.1083803 123.9572430 131.4720000 163.1080000
 122.6030000 131.4720000 163.1080000 124.6074269 130.4397992 163.1074242
 121.6960000 132.3760000 160.3130000 121.3249627 132.3756082 161.4464083
 121.3219482 131.7596945 163.1104991 128.5200424 133.7438952 163.9932020
 128.5207372 133.7429623 162.2282715 126.2582267 134.8269011 162.2274328
 126.2571634 134.8269044 163.9923625 126.4231151 132.3214740 163.9879224
 126.4230361 132.3229952 162.2277225 124.1615586 133.3903983 162.2161832
 124.1617875 133.3898719 164.0016810 122.2107631 132.3653881 163.1080000
 130.8290000 122.6100000 176.4150000 132.2787774 129.7112005 177.8411438
 130.7696515 129.6257848 177.7542115 130.2099757 128.7226163 178.8452000
 128.7112477 128.6670210 178.6783451 128.0921405 127.8002373 179.7513042
 126.5858159 127.9321808 179.6767451 125.9680844 127.1310000 178.5280000
 124.4220000 127.1310000 178.5280000 123.8146962 128.5577263 178.5280000
 124.3125752 129.4842788 177.4154628 123.7578467 130.8977891 177.6380727
 124.2653630 131.8612987 176.5700697 123.7134345 133.2724171 176.7908251
 124.2219850 134.2126350 175.6956482 123.6752930 135.6277717 175.8727523
 124.1878685 136.5451607 174.7748112 123.8985855 126.4811111 179.8750708
 124.2174433 127.2990878 181.1194143 123.6753105 126.6594234 182.3938002
 124.1033195 127.5233543 183.5739314 123.5870424 127.0020436 184.9085243
 124.0749724 127.9158103 186.0322741 123.5855094 127.4370682 187.3894483
 124.0733657 128.3480515 188.5033876 123.8671881 126.2603906 177.3616574
 124.2207005 124.7745280 177.2514780 123.8269989 123.8398091 178.3999994
 122.3189551 123.8551187 178.6549279 121.6444240 123.2052166 177.4644070
 120.1360011 123.2759084 177.4730254 119.6558935 122.5803068 176.2015470
 118.1478128 122.5770083 176.1094067 130.3670000 122.8780000 175.4600000
 130.2900455 122.5073397 175.4676543 130.2075611 122.1754972 177.2075043
 132.5739754 130.1126320 178.8168291 132.7141727 128.7092427 177.7514485
 130.4669720 129.2386836 176.7740912 130.3278237 130.6254455 177.8538742
 130.4732239 129.1158512 179.8322884 130.6384698 127.7137144 178.7659043
 128.4543187 128.2817845 177.6915598 128.2978951 129.6850287 178.7493450
 128.4262658 128.1382563 180.7375970 128.4063866 126.7547500 179.6475358
 126.2967068 128.9879578 179.6315596 126.2736052 127.5903389 180.6438530
 126.2883425 126.0879625 178.5773618 126.2823881 127.5334737 177.5602644
 124.0612357 129.0266140 179.4704736 122.7263203 128.4436983 178.4742458
 123.9920002 129.1317926 176.4294638 125.4057742 129.5405952 177.4069588
 124.0619731 131.2575757 178.6291851 122.6615120 130.8682478 177.6256421
 123.9709548 131.4997877 175.5802164 125.3615354 131.8917619 176.5945471
 124.0190479 133.6411915 177.7645017 122.6167292 133.2477877 176.7752742
 123.9255892 133.8258654 174.7143420 125.3180986 134.2372493 175.7173350
 123.9757766 136.0267647 176.8487785 122.5800217 135.6113078 175.8493739
 125.2809208 136.6084951 174.7953196 123.7850697 137.5538999 174.9033585
 123.8848333 136.1808719 173.7873785 124.3530542 125.4899619 179.9561353
 122.8106585 126.3705741 179.7657896 123.7636181 128.2910562 181.0631875
 125.2988946 127.4297973 181.2152741 124.0607371 125.6370534 182.5070741
 122.5804861 126.5950040 182.3465076 123.7405385 128.5483520 183.4244737
 125.1995863 127.5744758 183.6041921 123.9486746 125.9778178 185.0748960
 122.4939449 126.9701222 184.8988867 123.7201845 128.9392743 185.8536315
 125.1704190 127.9518191 186.0291142 123.9397463 126.4161405 187.5771609
 122.4880939 127.4053802 187.4036289 125.1683060 128.3806533 188.5301465
 123.7199238 127.9872630 189.4742081 123.7037895 129.3694462 188.3635654
 124.2800187 126.6912503 176.4453470 122.7819227 126.4122412 177.3449758
 125.2587693 124.6279571 176.9492213 123.7330396 124.4219919 176.3368611
 124.3920450 124.0327473 179.3148266 124.1297210 122.8171249 178.1314306
 121.9445027 124.8784618 178.7999114 122.0878803 123.3096479 179.5764419
 121.9743367 122.1601193 177.4087990 121.9639557 123.6837440 176.5367341
 119.8112828 124.3260481 177.4753643 119.7324417 122.7969961 178.3677257
 120.0271578 121.5486438 176.1843392 120.0727045 123.0811868 175.3187974
 117.7138941 122.0791213 176.9805216 117.8331443 122.0450585 175.2085859
 117.7661053 123.6013538 176.0613582 132.2980000 119.8110000 170.8490000
 121.8830000 131.7750000 180.1460000 128.1508435 134.2782258 181.0848018
 126.6216208 134.2873423 181.0848476 126.0569748 132.8653454 181.0839514
 124.5287844 132.8719019 181.0833803 123.9572430 131.4720000 181.0830000
 122.6030000 131.4720000 181.0830000 124.6074269 130.4397992 181.0824242
 121.6960000 132.3760000 178.2880000 121.3249627 132.3756082 179.4214083
 121.3219482 131.7596945 181.0854991 128.5200424 133.7438952 181.9682020
 128.5207372 133.7429623 180.2032715 126.2582267 134.8269011 180.2024328
 126.2571634 134.8269044 181.9673625 126.4231151 132.3214740 181.9629224
 126.4230361 132.3229952 180.2027225 124.1615586 133.3903983 180.1911832
 124.1617875 133.3898719 181.9766810 122.2107631 132.3653881 181.0830000
 130.8290000 141.2130000  68.5660000 132.2787774 148.3142005  69.9921438
 130.7696515 148.2287848  69.9052115 130.2099757 147.3256163  70.9962000
 128.7112477 147.2700210  70.8293451 128.0921405 146.4032373  71.9023042
 126.5858159 146.5351808  71.8277451 125.9680844 145.7340000  70.6790000
 124.4220000 145.7340000  70.6790000 123.8146962 147.1607263  70.6790000
 124.3125752 148.0872788  69.5664628 123.7578467 149.5007891  69.7890727
 124.2653630 150.4642987  68.7210697 123.7134345 151.8754171  68.9418251
 124.2219850 152.8156350  67.8466482 123.6752930 154.2307717  68.0237523
 124.1878685 155.1481607  66.9258112 123.8985855 145.0841111  72.0260708
 124.2174433 145.9020878  73.2704143 123.6753105 145.2624234  74.5448002
 124.1033195 146.1263543  75.7249314 123.5870424 145.6050436  77.0595243
 124.0749724 146.5188103  78.1832741 123.5855094 146.0400682  79.5404483
 124.0733657 146.9510515  80.6543876 123.8671881 144.8633906  69.5126574
 124.2207005 143.3775280  69.4024780 123.8269989 142.4428091  70.5509994
 122.3189551 142.4581187  70.8059279 121.6444240 141.8082166  69.6154070
 120.1360011 141.8789084  69.6240254 119.6558935 141.1833068  68.3525470
 118.1478128 141.1800083  68.2604067 130.3670000 141.4810000  67.6110000
 130.2900455 141.1103397  67.6186543 130.2075611 140.7784972  69.3585043
 132.5739754 148.7156320  70.9678291 132.7141727 147.3122427  69.9024485
 130.4669720 147.8416836  68.9250912 130.3278237 149.2284455  70.0048742
 130.4732239 147.7188512  71.9832884 130.6384698 146.3167144  70.9169043
 128.4543187 146.8847845  69.8425598 128.2978951 148.2880287  70.9003450
 128.4262658 146.7412563  72.8885970 128.4063866 145.3577500  71.7985358
 126.2967068 147.5909578  71.7825596 126.2736052 146.1933389  72.7948530
 126.2883425 144.6909625  70.7283618 126.2823881 146.1364737  69.7112644
 124.0612357 147.6296140  71.6214736 122.7263203 147.0466983  70.6252458
 123.9920002 147.7347926  68.5804638 125.4057742 148.1435952  69.5579588
 124.0619731 149.8605757  70.7801851 122.6615120 149.4712478  69.7766421
 123.9709548 150.1027877  67.7312164 125.3615354 150.4947619  68.7455471
 124.0190479 152.2441915  69.9155017 122.6167292 151.8507877  68.9262742
 123.9255892 152.4288654  66.8653420 125.3180986 152.8402493  67.8683350
 123.9757766 154.6297647  68.9997785 122.5800217 154.2143078  68.0003739
 125.2809208 155.2114951  66.9463196 123.7850697 156.1568999  67.0543585
 123.8848333 154.7838719  65.9383785 124.3530542 144.0929619  72.1071353
 122.8106585 144.9735741  71.9167896 123.7636181 146.8940562  73.2141875
 125.2988946 146.0327973  73.3662741 124.0607371 144.2400534  74.6580741
 122.5804861 145.1980040  74.4975076 123.7405385 147.1513520  75.5754737
 125.1995863 146.1774758  75.7551921 123.9486746 144.5808178  77.2258960
 122.4939449 145.5731222  77.0498867 123.7201845 147.5422743  78.0046315
 125.1704190 146.5548191  78.1801142 123.9397463 145.0191405  79.7281609
 122.4880939 146.0083802  79.5546289 125.1683060 146.9836533  80.6811465
 123.7199238 146.5902630  81.6252081 123.7037895 147.9724462  80.5145654
 124.2800187 145.2942503  68.5963470 122.7819227 145.0152412  69.4959758
 125.2587693 143.2309571  69.1002213 123.7330396 143.0249919  68.4878611
 124.3920450 142.6357473  71.4658266 124.1297210 141.4201249  70.2824306
 121.9445027 143.4814618  70.9509114 122.0878803 141.9126479  71.7274419
 121.9743367 140.7631193  69.5597990 121.9639557 142.2867440  68.6877341
 119.8112828 142.9290481  69.6263643 119.7324417 141.3999961  70.5187257
 120.0271578 140.1516438  68.3353392 120.0727045 141.6841868  67.4697974
 117.7138941 140.6821213  69.1315216 117.8331443 140.6480585  67.3595859
 117.7661053 142.2043538  68.2123582 132.2980000 138.4140000  63.0000000
 121.8830000 150.3780000  72.2970000 128.1508435 152.8812258  73.2358018
 126.6216208 152.8903423  73.2358476 126.0569748 151.4683454  73.2349514
 124.5287844 151.4749019  73.2343803 123.9572430 150.0750000  73.2340000
 122.6030000 150.0750000  73.2340000 124.6074269 149.0427992  73.2334242
 121.6960000 150.9790000  70.4390000 121.3249627 150.9786082  71.5724083
 121.3219482 150.3626945  73.2364991 128.5200424 152.3468952  74.1192020
 128.5207372 152.3459623  72.3542715 126.2582267 153.4299011  72.3534328
 126.2571634 153.4299044  74.1183625 126.4231151 150.9244740  74.1139224
 126.4230361 150.9259952  72.3537225 124.1615586 151.9933983  72.3421832
 124.1617875 151.9928719  74.1276810 122.2107631 150.9683881  73.2340000
 130.8290000 141.2130000  86.5410000 132.2787774 148.3142005  87.9671438
 130.7696515 148.2287848  87.8802115 130.2099757 147.3256163  88.9712000
 128.7112477 147.2700210  88.8043451 128.0921405 146.4032373  89.8773042
 126.5858159 146.5351808  89.8027451 125.9680844 145.7340000  88.6540000
 124.4220000 145.7340000  88.6540000 123.8146962 147.1607263  88.6540000
 124.3125752 148.0872788  87.5414628 123.7578467 149.5007891  87.7640727
 124.2653630 150.4642987  86.6960697 123.7134345 151.8754171  86.9168251
 124.2219850 152.8156350  85.8216482 123.6752930 154.2307717  85.9987523
 124.1878685 155.1481607  84.9008112 123.8985855 145.0841111  90.0010708
 124.2174433 145.9020878  91.2454143 123.6753105 145.2624234  92.5198002
 124.1033195 146.1263543  93.6999314 123.5870424 145.6050436  95.0345243
 124.0749724 146.5188103  96.1582741 123.5855094 146.0400682  97.5154483
 124.0733657 146.9510515  98.6293876 123.8671881 144.8633906  87.4876574
 124.2207005 143.3775280  87.3774780 123.8269989 142.4428091  88.5259994
 122.3189551 142.4581187  88.7809279 121.6444240 141.8082166  87.5904070
 120.1360011 141.8789084  87.5990254 119.6558935 141.1833068  86.3275470
 118.1478128 141.1800083  86.2354067 130.3670000 141.4810000  85.5860000
 130.2900455 141.1103397  85.5936543 130.2075611 140.7784972  87.3335043
 132.5739754 148.7156320  88.9428291 132.7141727 147.3122427  87.8774485
 130.4669720 147.8416836  86.9000912 130.3278237 149.2284455  87.9798742
 130.4732239 147.7188512  89.9582884 130.6384698 146.3167144  88.8919043
 128.4543187 146.8847845  87.8175598 128.2978951 148.2880287  88.8753450
 128.4262658 146.7412563  90.8635970 128.4063866 145.3577500  89.7735358
 126.2967068 147.5909578  89.7575596 126.2736052 146.1933389  90.7698530
 126.2883425 144.6909625  88.7033618 126.2823881 146.1364737  87.6862644
 124.0612357 147.6296140  89.5964736 122.7263203 147.0466983  88.6002458
 123.9920002 147.7347926  86.5554638 125.4057742 148.1435952  87.5329588
 124.0619731 149.8605757  88.7551851 122.6615120 149.4712478  87.7516421
 123.9709548 150.1027877  85.7062164 125.3615354 150.4947619  86.7205471
 124.0190479 152.2441915  87.8905017 122.6167292 151.8507877  86.9012742
 123.9255892 152.4288654  84.8403420 125.3180986 152.8402493  85.8433350
 123.9757766 154.6297647  86.9747785 122.5800217 154.2143078  85.9753739
 125.2809208 155.2114951  84.9213196 123.7850697 156.1568999  85.0293585
 123.8848333 154.7838719  83.9133785 124.3530542 144.0929619  90.0821353
 122.8106585 144.9735741  89.8917896 123.7636181 146.8940562  91.1891875
 125.2988946 146.0327973  91.3412741 124.0607371 144.2400534  92.6330741
 122.5804861 145.1980040  92.4725076 123.7405385 147.1513520  93.5504737
 125.1995863 146.1774758  93.7301921 123.9486746 144.5808178  95.2008960
 122.4939449 145.5731222  95.0248867 123.7201845 147.5422743  95.9796315
 125.1704190 146.5548191  96.1551142 123.9397463 145.0191405  97.7031609
 122.4880939 146.0083802  97.5296289 125.1683060 146.9836533  98.6561465
 123.7199238 146.5902630  99.6002081 123.7037895 147.9724462  98.4895654
 124.2800187 145.2942503  86.5713470 122.7819227 145.0152412  87.4709758
 125.2587693 143.2309571  87.0752213 123.7330396 143.0249919  86.4628611
 124.3920450 142.6357473  89.4408266 124.1297210 141.4201249  88.2574306
 121.9445027 143.4814618  88.9259114 122.0878803 141.9126479  89.7024419
 121.9743367 140.7631193  87.5347990 121.9639557 142.2867440  86.6627341
 119.8112828 142.9290481  87.6013643 119.7324417 141.3999961  88.4937257
 120.0271578 140.1516438  86.3103392 120.0727045 141.6841868  85.4447974
 117.7138941 140.6821213  87.1065216 117.8331443 140.6480585  85.3345859
 117.7661053 142.2043538  86.1873582 132.2980000 138.4140000  80.9750000
 121.8830000 150.3780000  90.2720000 128.1508435 152.8812258  91.2108018
 126.6216208 152.8903423  91.2108476 126.0569748 151.4683454  91.2099514
 124.5287844 151.4749019  91.2093803 123.9572430 150.0750000  91.2090000
 122.6030000 150.0750000  91.2090000 124.6074269 149.0427992  91.2084242
 121.6960000 150.9790000  88.4140000 121.3249627 150.9786082  89.5474083
 121.3219482 150.3626945  91.2114991 128.5200424 152.3468952  92.0942020
 128.5207372 152.3459623  90.3292715 126.2582267 153.4299011  90.3284328
 126.2571634 153.4299044  92.0933625 126.4231151 150.9244740  92.0889224
 126.4230361 150.9259952  90.3287225 124.1615586 151.9933983  90.3171832
 124.1617875 151.9928719  92.1026810 122.2107631 150.9683881  91.2090000
 130.8290000 141.2130000 104.5160000 132.2787774 148.3142005 105.9421438
 130.7696515 148.2287848 105.8552115 130.2099757 147.3256163 106.9462000
 128.7112477 147.2700210 106.7793451 128.0921405 146.4032373 107.8523042
 126.5858159 146.5351808 107.7777451 125.9680844 145.7340000 106.6290000
 124.4220000 145.7340000 106.6290000 123.8146962 147.1607263 106.6290000
 124.3125752 148.0872788 105.5164628 123.7578467 149.5007891 105.7390727
 124.2653630 150.4642987 104.6710697 123.7134345 151.8754171 104.8918251
 124.2219850 152.8156350 103.7966482 123.6752930 154.2307717 103.9737523
 124.1878685 155.1481607 102.8758112 123.8985855 145.0841111 107.9760708
 124.2174433 145.9020878 109.2204143 123.6753105 145.2624234 110.4948002
 124.1033195 146.1263543 111.6749314 123.5870424 145.6050436 113.0095243
 124.0749724 146.5188103 114.1332741 123.5855094 146.0400682 115.4904483
 124.0733657 146.9510515 116.6043876 123.8671881 144.8633906 105.4626574
 124.2207005 143.3775280 105.3524780 123.8269989 142.4428091 106.5009994
 122.3189551 142.4581187 106.7559279 121.6444240 141.8082166 105.5654070
 120.1360011 141.8789084 105.5740254 119.6558935 141.1833068 104.3025470
 118.1478128 141.1800083 104.2104067 130.3670000 141.4810000 103.5610000
 130.2900455 141.1103397 103.5686543 130.2075611 140.7784972 105.3085043
 132.5739754 148.7156320 106.9178291 132.7141727 147.3122427 105.8524485
 130.4669720 147.8416836 104.8750912 130.3278237 149.2284455 105.9548742
 130.4732239 147.7188512 107.9332884 130.6384698 146.3167144 106.8669043
 128.4543187 146.8847845 105.7925598 128.2978951 148.2880287 106.8503450
 128.4262658 146.7412563 108.8385970 128.4063866 145.3577500 107.7485358
 126.2967068 147.5909578 107.7325596 126.2736052 146.1933389 108.7448530
 126.2883425 144.6909625 106.6783618 126.2823881 146.1364737 105.6612644
 124.0612357 147.6296140 107.5714736 122.7263203 147.0466983 106.5752458
 123.9920002 147.7347926 104.5304638 125.4057742 148.1435952 105.5079588
 124.0619731 149.8605757 106.7301851 122.6615120 149.4712478 105.7266421
 123.9709548 150.1027877 103.6812164 125.3615354 150.4947619 104.6955471
 124.0190479 152.2441915 105.8655017 122.6167292 151.8507877 104.8762742
 123.9255892 152.4288654 102.8153420 125.3180986 152.8402493 103.8183350
 123.9757766 154.6297647 104.9497785 122.5800217 154.2143078 103.9503739
 125.2809208 155.2114951 102.8963196 123.7850697 156.1568999 103.0043585
 123.8848333 154.7838719 101.8883785 124.3530542 144.0929619 108.0571353
 122.8106585 144.9735741 107.8667896 123.7636181 146.8940562 109.1641875
 125.2988946 146.0327973 109.3162741 124.0607371 144.2400534 110.6080741
 122.5804861 145.1980040 110.4475076 123.7405385 147.1513520 111.5254737
 125.1995863 146.1774758 111.7051921 123.9486746 144.5808178 113.1758960
 122.4939449 145.5731222 112.9998867 123.7201845 147.5422743 113.9546315
 125.1704190 146.5548191 114.1301142 123.9397463 145.0191405 115.6781609
 122.4880939 146.0083802 115.5046289 125.1683060 146.9836533 116.6311465
 123.7199238 146.5902630 117.5752081 123.7037895 147.9724462 116.4645654
 124.2800187 145.2942503 104.5463470 122.7819227 145.0152412 105.4459758
 125.2587693 143.2309571 105.0502213 123.7330396 143.0249919 104.4378611
 124.3920450 142.6357473 107.4158266 124.1297210 141.4201249 106.2324306
 121.9445027 143.4814618 106.9009114 122.0878803 141.9126479 107.6774419
 121.9743367 140.7631193 105.5097990 121.9639557 142.2867440 104.6377341
 119.8112828 142.9290481 105.5763643 119.7324417 141.3999961 106.4687257
 120.0271578 140.1516438 104.2853392 120.0727045 141.6841868 103.4197974
 117.7138941 140.6821213 105.0815216 117.8331443 140.6480585 103.3095859
 117.7661053 142.2043538 104.1623582 132.2980000 138.4140000  98.9500000
 121.8830000 150.3780000 108.2470000 128.1508435 152.8812258 109.1858018
 126.6216208 152.8903423 109.1858476 126.0569748 151.4683454 109.1849514
 124.5287844 151.4749019 109.1843803 123.9572430 150.0750000 109.1840000
 122.6030000 150.0750000 109.1840000 124.6074269 149.0427992 109.1834242
 121.6960000 150.9790000 106.3890000 121.3249627 150.9786082 107.5224083
 121.3219482 150.3626945 109.1864991 128.5200424 152.3468952 110.0692020
 128.5207372 152.3459623 108.3042715 126.2582267 153.4299011 108.3034328
 126.2571634 153.4299044 110.0683625 126.4231151 150.9244740 110.0639224
 126.4230361 150.9259952 108.3037225 124.1615586 151.9933983 108.2921832
 124.1617875 151.9928719 110.0776810 122.2107631 150.9683881 109.1840000
 130.8290000 141.2130000 122.4900000 132.2787774 148.3142005 123.9161438
 130.7696515 148.2287848 123.8292115 130.2099757 147.3256163 124.9202000
 128.7112477 147.2700210 124.7533451 128.0921405 146.4032373 125.8263042
 126.5858159 146.5351808 125.7517451 125.9680844 145.7340000 124.6030000
 124.4220000 145.7340000 124.6030000 123.8146962 147.1607263 124.6030000
 124.3125752 148.0872788 123.4904628 123.7578467 149.5007891 123.7130727
 124.2653630 150.4642987 122.6450697 123.7134345 151.8754171 122.8658251
 124.2219850 152.8156350 121.7706482 123.6752930 154.2307717 121.9477523
 124.1878685 155.1481607 120.8498112 123.8985855 145.0841111 125.9500708
 124.2174433 145.9020878 127.1944143 123.6753105 145.2624234 128.4688002
 124.1033195 146.1263543 129.6489314 123.5870424 145.6050436 130.9835243
 124.0749724 146.5188103 132.1072741 123.5855094 146.0400682 133.4644483
 124.0733657 146.9510515 134.5783876 123.8671881 144.8633906 123.4366574
 124.2207005 143.3775280 123.3264780 123.8269989 142.4428091 124.4749994
 122.3189551 142.4581187 124.7299279 121.6444240 141.8082166 123.5394070
 120.1360011 141.8789084 123.5480254 119.6558935 141.1833068 122.2765470
 118.1478128 141.1800083 122.1844067 130.3670000 141.4810000 121.5350000
 130.2900455 141.1103397 121.5426543 130.2075611 140.7784972 123.2825043
 132.5739754 148.7156320 124.8918291 132.7141727 147.3122427 123.8264485
 130.4669720 147.8416836 122.8490912 130.3278237 149.2284455 123.9288742
 130.4732239 147.7188512 125.9072884 130.6384698 146.3167144 124.8409043
 128.4543187 146.8847845 123.7665598 128.2978951 148.2880287 124.8243450
 128.4262658 146.7412563 126.8125970 128.4063866 145.3577500 125.7225358
 126.2967068 147.5909578 125.7065596 126.2736052 146.1933389 126.7188530
 126.2883425 144.6909625 124.6523618 126.2823881 146.1364737 123.6352644
 124.0612357 147.6296140 125.5454736 122.7263203 147.0466983 124.5492458
 123.9920002 147.7347926 122.5044638 125.4057742 148.1435952 123.4819588
 124.0619731 149.8605757 124.7041851 122.6615120 149.4712478 123.7006421
 123.9709548 150.1027877 121.6552164 125.3615354 150.4947619 122.6695471
 124.0190479 152.2441915 123.8395017 122.6167292 151.8507877 122.8502742
 123.9255892 152.4288654 120.7893420 125.3180986 152.8402493 121.7923350
 123.9757766 154.6297647 122.9237785 122.5800217 154.2143078 121.9243739
 125.2809208 155.2114951 120.8703196 123.7850697 156.1568999 120.9783585
 123.8848333 154.7838719 119.8623785 124.3530542 144.0929619 126.0311353
 122.8106585 144.9735741 125.8407896 123.7636181 146.8940562 127.1381875
 125.2988946 146.0327973 127.2902741 124.0607371 144.2400534 128.5820741
 122.5804861 145.1980040 128.4215076 123.7405385 147.1513520 129.4994737
 125.1995863 146.1774758 129.6791921 123.9486746 144.5808178 131.1498960
 122.4939449 145.5731222 130.9738867 123.7201845 147.5422743 131.9286315
 125.1704190 146.5548191 132.1041142 123.9397463 145.0191405 133.6521609
 122.4880939 146.0083802 133.4786289 125.1683060 146.9836533 134.6051465
 123.7199238 146.5902630 135.5492081 123.7037895 147.9724462 134.4385654
 124.2800187 145.2942503 122.5203470 122.7819227 145.0152412 123.4199758
 125.2587693 143.2309571 123.0242213 123.7330396 143.0249919 122.4118611
 124.3920450 142.6357473 125.3898266 124.1297210 141.4201249 124.2064306
 121.9445027 143.4814618 124.8749114 122.0878803 141.9126479 125.6514419
 121.9743367 140.7631193 123.4837990 121.9639557 142.2867440 122.6117341
 119.8112828 142.9290481 123.5503643 119.7324417 141.3999961 124.4427257
 120.0271578 140.1516438 122.2593392 120.0727045 141.6841868 121.3937974
 117.7138941 140.6821213 123.0555216 117.8331443 140.6480585 121.2835859
 117.7661053 142.2043538 122.1363582 132.2980000 138.4140000 116.9240000
 121.8830000 150.3780000 126.2210000 128.1508435 152.8812258 127.1598018
 126.6216208 152.8903423 127.1598476 126.0569748 151.4683454 127.1589514
 124.5287844 151.4749019 127.1583803 123.9572430 150.0750000 127.1580000
 122.6030000 150.0750000 127.1580000 124.6074269 149.0427992 127.1574242
 121.6960000 150.9790000 124.3630000 121.3249627 150.9786082 125.4964083
 121.3219482 150.3626945 127.1604991 128.5200424 152.3468952 128.0432020
 128.5207372 152.3459623 126.2782715 126.2582267 153.4299011 126.2774328
 126.2571634 153.4299044 128.0423625 126.4231151 150.9244740 128.0379224
 126.4230361 150.9259952 126.2777225 124.1615586 151.9933983 126.2661832
 124.1617875 151.9928719 128.0516810 122.2107631 150.9683881 127.1580000
 130.8290000 141.2130000 140.4650000 132.2787774 148.3142005 141.8911438
 130.7696515 148.2287848 141.8042115 130.2099757 147.3256163 142.8952000
 128.7112477 147.2700210 142.7283451 128.0921405 146.4032373 143.8013042
 126.5858159 146.5351808 143.7267451 125.9680844 145.7340000 142.5780000
 124.4220000 145.7340000 142.5780000 123.8146962 147.1607263 142.5780000
 124.3125752 148.0872788 141.4654628 123.7578467 149.5007891 141.6880727
 124.2653630 150.4642987 140.6200697 123.7134345 151.8754171 140.8408251
 124.2219850 152.8156350 139.7456482 123.6752930 154.2307717 139.9227523
 124.1878685 155.1481607 138.8248112 123.8985855 145.0841111 143.9250708
 124.2174433 145.9020878 145.1694143 123.6753105 145.2624234 146.4438002
 124.1033195 146.1263543 147.6239314 123.5870424 145.6050436 148.9585243
 124.0749724 146.5188103 150.0822741 123.5855094 146.0400682 151.4394483
 124.0733657 146.9510515 152.5533876 123.8671881 144.8633906 141.4116574
 124.2207005 143.3775280 141.3014780 123.8269989 142.4428091 142.4499994
 122.3189551 142.4581187 142.7049279 121.6444240 141.8082166 141.5144070
 120.1360011 141.8789084 141.5230254 119.6558935 141.1833068 140.2515470
 118.1478128 141.1800083 140.1594067 130.3670000 141.4810000 139.5100000
 130.2900455 141.1103397 139.5176543 130.2075611 140.7784972 141.2575043
 132.5739754 148.7156320 142.8668291 132.7141727 147.3122427 141.8014485
 130.4669720 147.8416836 140.8240912 130.3278237 149.2284455 141.9038742
 130.4732239 147.7188512 143.8822884 130.6384698 146.3167144 142.8159043
 128.4543187 146.8847845 141.7415598 128.2978951 148.2880287 142.7993450
 128.4262658 146.7412563 144.7875970 128.4063866 145.3577500 143.6975358
 126.2967068 147.5909578 143.6815596 126.2736052 146.1933389 144.6938530
 126.2883425 144.6909625 142.6273618 126.2823881 146.1364737 141.6102644
 124.0612357 147.6296140 143.5204736 122.7263203 147.0466983 142.5242458
 123.9920002 147.7347926 140.4794638 125.4057742 148.1435952 141.4569588
 124.0619731 149.8605757 142.6791851 122.6615120 149.4712478 141.6756421
 123.9709548 150.1027877 139.6302164 125.3615354 150.4947619 140.6445471
 124.0190479 152.2441915 141.8145017 122.6167292 151.8507877 140.8252742
 123.9255892 152.4288654 138.7643420 125.3180986 152.8402493 139.7673350
 123.9757766 154.6297647 140.8987785 122.5800217 154.2143078 139.8993739
 125.2809208 155.2114951 138.8453196 123.7850697 156.1568999 138.9533585
 123.8848333 154.7838719 137.8373785 124.3530542 144.0929619 144.0061353
 122.8106585 144.9735741 143.8157896 123.7636181 146.8940562 145.1131875
 125.2988946 146.0327973 145.2652741 124.0607371 144.2400534 146.5570741
 122.5804861 145.1980040 146.3965076 123.7405385 147.1513520 147.4744737
 125.1995863 146.1774758 147.6541921 123.9486746 144.5808178 149.1248960
 122.4939449 145.5731222 148.9488867 123.7201845 147.5422743 149.9036315
 125.1704190 146.5548191 150.0791142 123.9397463 145.0191405 151.6271609
 122.4880939 146.0083802 151.4536289 125.1683060 146.9836533 152.5801465
 123.7199238 146.5902630 153.5242081 123.7037895 147.9724462 152.4135654
 124.2800187 145.2942503 140.4953470 122.7819227 145.0152412 141.3949758
 125.2587693 143.2309571 140.9992213 123.7330396 143.0249919 140.3868611
 124.3920450 142.6357473 143.3648266 124.1297210 141.4201249 142.1814306
 121.9445027 143.4814618 142.8499114 122.0878803 141.9126479 143.6264419
 121.9743367 140.7631193 141.4587990 121.9639557 142.2867440 140.5867341
 119.8112828 142.9290481 141.5253643 119.7324417 141.3999961 142.4177257
 120.0271578 140.1516438 140.2343392 120.0727045 141.6841868 139.3687974
 117.7138941 140.6821213 141.0305216 117.8331443 140.6480585 139.2585859
 117.7661053 142.2043538 140.1113582 132.2980000 138.4140000 134.8990000
 121.8830000 150.3780000 144.1960000 128.1508435 152.8812258 145.1348018
 126.6216208 152.8903423 145.1348476 126.0569748 151.4683454 145.1339514
 124.5287844 151.4749019 145.1333803 123.9572430 150.0750000 145.1330000
 122.6030000 150.0750000 145.1330000 124.6074269 149.0427992 145.1324242
 121.6960000 150.9790000 142.3380000 121.3249627 150.9786082 143.4714083
 121.3219482 150.3626945 145.1354991 128.5200424 152.3468952 146.0182020
 128.5207372 152.3459623 144.2532715 126.2582267 153.4299011 144.2524328
 126.2571634 153.4299044 146.0173625 126.4231151 150.9244740 146.0129224
 126.4230361 150.9259952 144.2527225 124.1615586 151.9933983 144.2411832
 124.1617875 151.9928719 146.0266810 122.2107631 150.9683881 145.1330000
 130.8290000 141.2130000 158.4400000 132.2787774 148.3142005 159.8661438
 130.7696515 148.2287848 159.7792115 130.2099757 147.3256163 160.8702000
 128.7112477 147.2700210 160.7033451 128.0921405 146.4032373 161.7763042
 126.5858159 146.5351808 161.7017451 125.9680844 145.7340000 160.5530000
 124.4220000 145.7340000 160.5530000 123.8146962 147.1607263 160.5530000
 124.3125752 148.0872788 159.4404628 123.7578467 149.5007891 159.6630727
 124.2653630 150.4642987 158.5950697 123.7134345 151.8754171 158.8158251
 124.2219850 152.8156350 157.7206482 123.6752930 154.2307717 157.8977523
 124.1878685 155.1481607 156.7998112 123.8985855 145.0841111 161.9000708
 124.2174433 145.9020878 163.1444143 123.6753105 145.2624234 164.4188002
 124.1033195 146.1263543 165.5989314 123.5870424 145.6050436 166.9335243
 124.0749724 146.5188103 168.0572741 123.5855094 146.0400682 169.4144483
 124.0733657 146.9510515 170.5283876 123.8671881 144.8633906 159.3866574
 124.2207005 143.3775280 159.2764780 123.8269989 142.4428091 160.4249994
 122.3189551 142.4581187 160.6799279 121.6444240 141.8082166 159.4894070
 120.1360011 141.8789084 159.4980254 119.6558935 141.1833068 158.2265470
 118.1478128 141.1800083 158.1344067 130.3670000 141.4810000 157.4850000
 130.2900455 141.1103397 157.4926543 130.2075611 140.7784972 159.2325043
 132.5739754 148.7156320 160.8418291 132.7141727 147.3122427 159.7764485
 130.4669720 147.8416836 158.7990912 130.3278237 149.2284455 159.8788742
 130.4732239 147.7188512 161.8572884 130.6384698 146.3167144 160.7909043
 128.4543187 146.8847845 159.7165598 128.2978951 148.2880287 160.7743450
 128.4262658 146.7412563 162.7625970 128.4063866 145.3577500 161.6725358
 126.2967068 147.5909578 161.6565596 126.2736052 146.1933389 162.6688530
 126.2883425 144.6909625 160.6023618 126.2823881 146.1364737 159.5852644
 124.0612357 147.6296140 161.4954736 122.7263203 147.0466983 160.4992458
 123.9920002 147.7347926 158.4544638 125.4057742 148.1435952 159.4319588
 124.0619731 149.8605757 160.6541851 122.6615120 149.4712478 159.6506421
 123.9709548 150.1027877 157.6052164 125.3615354 150.4947619 158.6195471
 124.0190479 152.2441915 159.7895017 122.6167292 151.8507877 158.8002742
 123.9255892 152.4288654 156.7393420 125.3180986 152.8402493 157.7423350
 123.9757766 154.6297647 158.8737785 122.5800217 154.2143078 157.8743739
 125.2809208 155.2114951 156.8203196 123.7850697 156.1568999 156.9283585
 123.8848333 154.7838719 155.8123785 124.3530542 144.0929619 161.9811353
 122.8106585 144.9735741 161.7907896 123.7636181 146.8940562 163.0881875
 125.2988946 146.0327973 163.2402741 124.0607371 144.2400534 164.5320741
 122.5804861 145.1980040 164.3715076 123.7405385 147.1513520 165.4494737
 125.1995863 146.1774758 165.6291921 123.9486746 144.5808178 167.0998960
 122.4939449 145.5731222 166.9238867 123.7201845 147.5422743 167.8786315
 125.1704190 146.5548191 168.0541142 123.9397463 145.0191405 169.6021609
 122.4880939 146.0083802 169.4286289 125.1683060 146.9836533 170.5551465
 123.7199238 146.5902630 171.4992081 123.7037895 147.9724462 170.3885654
 124.2800187 145.2942503 158.4703470 122.7819227 145.0152412 159.3699758
 125.2587693 143.2309571 158.9742213 123.7330396 143.0249919 158.3618611
 124.3920450 142.6357473 161.3398266 124.1297210 141.4201249 160.1564306
 121.9445027 143.4814618 160.8249114 122.0878803 141.9126479 161.6014419
 121.9743367 140.7631193 159.4337990 121.9639557 142.2867440 158.5617341
 119.8112828 142.9290481 159.5003643 119.7324417 141.3999961 160.3927257
 120.0271578 140.1516438 158.2093392 120.0727045 141.6841868 157.3437974
 117.7138941 140.6821213 159.0055216 117.8331443 140.6480585 157.2335859
 117.7661053 142.2043538 158.0863582 132.2980000 138.4140000 152.8740000
 121.8830000 150.3780000 162.1710000 128.1508435 152.8812258 163.1098018
 126.6216208 152.8903423 163.1098476 126.0569748 151.4683454 163.1089514
 124.5287844 151.4749019 163.1083803 123.9572430 150.0750000 163.1080000
 122.6030000 150.0750000 163.1080000 124.6074269 149.0427992 163.1074242
 121.6960000 150.9790000 160.3130000 121.3249627 150.9786082 161.4464083
 121.3219482 150.3626945 163.1104991 128.5200424 152.3468952 163.9932020
 128.5207372 152.3459623 162.2282715 126.2582267 153.4299011 162.2274328
 126.2571634 153.4299044 163.9923625 126.4231151 150.9244740 163.9879224
 126.4230361 150.9259952 162.2277225 124.1615586 151.9933983 162.2161832
 124.1617875 151.9928719 164.0016810 122.2107631 150.9683881 163.1080000
 130.8290000 141.2130000 176.4150000 132.2787774 148.3142005 177.8411438
 130.7696515 148.2287848 177.7542115 130.2099757 147.3256163 178.8452000
 128.7112477 147.2700210 178.6783451 128.0921405 146.4032373 179.7513042
 126.5858159 146.5351808 179.6767451 125.9680844 145.7340000 178.5280000
 124.4220000 145.7340000 178.5280000 123.8146962 147.1607263 178.5280000
 124.3125752 148.0872788 177.4154628 123.7578467 149.5007891 177.6380727
 124.2653630 150.4642987 176.5700697 123.7134345 151.8754171 176.7908251
 124.2219850 152.8156350 175.6956482 123.6752930 154.2307717 175.8727523
 124.1878685 155.1481607 174.7748112 123.8985855 145.0841111 179.8750708
 124.2174433 145.9020878 181.1194143 123.6753105 145.2624234 182.3938002
 124.1033195 146.1263543 183.5739314 123.5870424 145.6050436 184.9085243
 124.0749724 146.5188103 186.0322741 123.5855094 146.0400682 187.3894483
 124.0733657 146.9510515 188.5033876 123.8671881 144.8633906 177.3616574
 124.2207005 143.3775280 177.2514780 123.8269989 142.4428091 178.3999994
 122.3189551 142.4581187 178.6549279 121.6444240 141.8082166 177.4644070
 120.1360011 141.8789084 177.4730254 119.6558935 141.1833068 176.2015470
 118.1478128 141.1800083 176.1094067 130.3670000 141.4810000 175.4600000
 130.2900455 141.1103397 175.4676543 130.2075611 140.7784972 177.2075043
 132.5739754 148.7156320 178.8168291 132.7141727 147.3122427 177.7514485
 130.4669720 147.8416836 176.7740912 130.3278237 149.2284455 177.8538742
 130.4732239 147.7188512 179.8322884 130.6384698 146.3167144 178.7659043
 128.4543187 146.8847845 177.6915598 128.2978951 148.2880287 178.7493450
 128.4262658 146.7412563 180.7375970 128.4063866 145.3577500 179.6475358
 126.2967068 147.5909578 179.6315596 126.2736052 146.1933389 180.6438530
 126.2883425 144.6909625 178.5773618 126.2823881 146.1364737 177.5602644
 124.0612357 147.6296140 179.4704736 122.7263203 147.0466983 178.4742458
 123.9920002 147.7347926 176.4294638 125.4057742 148.1435952 177.4069588
 124.0619731 149.8605757 178.6291851 122.6615120 149.4712478 177.6256421
 123.9709548 150.1027877 175.5802164 125.3615354 150.4947619 176.5945471
 124.0190479 152.2441915 177.7645017 122.6167292 151.8507877 176.7752742
 123.9255892 152.4288654 174.7143420 125.3180986 152.8402493 175.7173350
 123.9757766 154.6297647 176.8487785 122.5800217 154.2143078 175.8493739
 125.2809208 155.2114951 174.7953196 123.7850697 156.1568999 174.9033585
 123.8848333 154.7838719 173.7873785 124.3530542 144.0929619 179.9561353
 122.8106585 144.9735741 179.7657896 123.7636181 146.8940562 181.0631875
 125.2988946 146.0327973 181.2152741 124.0607371 144.2400534 182.5070741
 122.5804861 145.1980040 182.3465076 123.7405385 147.1513520 183.4244737
 125.1995863 146.1774758 183.6041921 123.9486746 144.5808178 185.0748960
 122.4939449 145.5731222 184.8988867 123.7201845 147.5422743 185.8536315
 125.1704190 146.5548191 186.0291142 123.9397463 145.0191405 187.5771609
 122.4880939 146.0083802 187.4036289 125.1683060 146.9836533 188.5301465
 123.7199238 146.5902630 189.4742081 123.7037895 147.9724462 188.3635654
 124.2800187 145.2942503 176.4453470 122.7819227 145.0152412 177.3449758
 125.2587693 143.2309571 176.9492213 123.7330396 143.0249919 176.3368611
 124.3920450 142.6357473 179.3148266 124.1297210 141.4201249 178.1314306
 121.9445027 143.4814618 178.7999114 122.0878803 141.9126479 179.5764419
 121.9743367 140.7631193 177.4087990 121.9639557 142.2867440 176.5367341
 119.8112828 142.9290481 177.4753643 119.7324417 141.3999961 178.3677257
 120.0271578 140.1516438 176.1843392 120.0727045 141.6841868 175.3187974
 117.7138941 140.6821213 176.9805216 117.8331443 140.6480585 175.2085859
 117.7661053 142.2043538 176.0613582 132.2980000 138.4140000 170.8490000
 121.8830000 150.3780000 180.1460000 128.1508435 152.8812258 181.0848018
 126.6216208 152.8903423 181.0848476 126.0569748 151.4683454 181.0839514
 124.5287844 151.4749019 181.0833803 123.9572430 150.0750000 181.0830000
 122.6030000 150.0750000 181.0830000 124.6074269 149.0427992 181.0824242
 121.6960000 150.9790000 178.2880000 121.3249627 150.9786082 179.4214083
 121.3219482 150.3626945 181.0854991 128.5200424 152.3468952 181.9682020
 128.5207372 152.3459623 180.2032715 126.2582267 153.4299011 180.2024328
 126.2571634 153.4299044 181.9673625 126.4231151 150.9244740 181.9629224
 126.4230361 150.9259952 180.2027225 124.1615586 151.9933983 180.1911832
 124.1617875 151.9928719 181.9766810 122.2107631 150.9683881 181.0830000
 130.8290000 159.8170000  68.5660000 132.2787774 166.9182005  69.9921438
 130.7696515 166.8327848  69.9052115 130.2099757 165.9296163  70.9962000
 128.7112477 165.8740210  70.8293451 128.0921405 165.0072373  71.9023042
 126.5858159 165.1391808  71.8277451 125.9680844 164.3380000  70.6790000
 124.4220000 164.3380000  70.6790000 123.8146962 165.7647263  70.6790000
 124.3125752 166.6912788  69.5664628 123.7578467 168.1047891  69.7890727
 124.2653630 169.0682987  68.7210697 123.7134345 170.4794171  68.9418251
 124.2219850 171.4196350  67.8466482 123.6752930 172.8347717  68.0237523
 124.1878685 173.7521607  66.9258112 123.8985855 163.6881111  72.0260708
 124.2174433 164.5060878  73.2704143 123.6753105 163.8664234  74.5448002
 124.1033195 164.7303543  75.7249314 123.5870424 164.2090436  77.0595243
 124.0749724 165.1228103  78.1832741 123.5855094 164.6440682  79.5404483
 124.0733657 165.5550515  80.6543876 123.8671881 163.4673906  69.5126574
 124.2207005 161.9815280  69.4024780 123.8269989 161.0468091  70.5509994
 122.3189551 161.0621187  70.8059279 121.6444240 160.4122166  69.6154070
 120.1360011 160.4829084  69.6240254 119.6558935 159.7873068  68.3525470
 118.1478128 159.7840083  68.2604067 130.3670000 160.0850000  67.6110000
 130.2900455 159.7143397  67.6186543 130.2075611 159.3824972  69.3585043
 132.5739754 167.3196320  70.9678291 132.7141727 165.9162427  69.9024485
 130.4669720 166.4456836  68.9250912 130.3278237 167.8324455  70.0048742
 130.4732239 166.3228512  71.9832884 130.6384698 164.9207144  70.9169043
 128.4543187 165.4887845  69.8425598 128.2978951 166.8920287  70.9003450
 128.4262658 165.3452563  72.8885970 128.4063866 163.9617500  71.7985358
 126.2967068 166.1949578  71.7825596 126.2736052 164.7973389  72.7948530
 126.2883425 163.2949625  70.7283618 126.2823881 164.7404737  69.7112644
 124.0612357 166.2336140  71.6214736 122.7263203 165.6506983  70.6252458
 123.9920002 166.3387926  68.5804638 125.4057742 166.7475952  69.5579588
 124.0619731 168.4645757  70.7801851 122.6615120 168.0752478  69.7766421
 123.9709548 168.7067877  67.7312164 125.3615354 169.0987619  68.7455471
 124.0190479 170.8481915  69.9155017 122.6167292 170.4547877  68.9262742
 123.9255892 171.0328654  66.8653420 125.3180986 171.4442493  67.8683350
 123.9757766 173.2337647  68.9997785 122.5800217 172.8183078  68.0003739
 125.2809208 173.8154951  66.9463196 123.7850697 174.7608999  67.0543585
 123.8848333 173.3878719  65.9383785 124.3530542 162.6969619  72.1071353
 122.8106585 163.5775741  71.9167896 123.7636181 165.4980562  73.2141875
 125.2988946 164.6367973  73.3662741 124.0607371 162.8440534  74.6580741
 122.5804861 163.8020040  74.4975076 123.7405385 165.7553520  75.5754737
 125.1995863 164.7814758  75.7551921 123.9486746 163.1848178  77.2258960
 122.4939449 164.1771222  77.0498867 123.7201845 166.1462743  78.0046315
 125.1704190 165.1588191  78.1801142 123.9397463 163.6231405  79.7281609
 122.4880939 164.6123802  79.5546289 125.1683060 165.5876533  80.6811465
 123.7199238 165.1942630  81.6252081 123.7037895 166.5764462  80.5145654
 124.2800187 163.8982503  68.5963470 122.7819227 163.6192412  69.4959758
 125.2587693 161.8349571  69.1002213 123.7330396 161.6289919  68.4878611
 124.3920450 161.2397473  71.4658266 124.1297210 160.0241249  70.2824306
 121.9445027 162.0854618  70.9509114 122.0878803 160.5166479  71.7274419
 121.9743367 159.3671193  69.5597990 121.9639557 160.8907440  68.6877341
 119.8112828 161.5330481  69.6263643 119.7324417 160.0039961  70.5187257
 120.0271578 158.7556438  68.3353392 120.0727045 160.2881868  67.4697974
 117.7138941 159.2861213  69.1315216 117.8331443 159.2520585  67.3595859
 117.7661053 160.8083538  68.2123582 132.2980000 157.0180000  63.0000000
 121.8830000 168.9820000  72.2970000 128.1508435 171.4852258  73.2358018
 126.6216208 171.4943423  73.2358476 126.0569748 170.0723454  73.2349514
 124.5287844 170.0789019  73.2343803 123.9572430 168.6790000  73.2340000
 122.6030000 168.6790000  73.2340000 124.6074269 167.6467992  73.2334242
 121.6960000 169.5830000  70.4390000 121.3249627 169.5826082  71.5724083
 121.3219482 168.9666945  73.2364991 128.5200424 170.9508952  74.1192020
 128.5207372 170.9499623  72.3542715 126.2582267 172.0339011  72.3534328
 126.2571634 172.0339044  74.1183625 126.4231151 169.5284740  74.1139224
 126.4230361 169.5299952  72.3537225 124.1615586 170.5973983  72.3421832
 124.1617875 170.5968719  74.1276810 122.2107631 169.5723881  73.2340000
 130.8290000 159.8170000  86.5410000 132.2787774 166.9182005  87.9671438
 130.7696515 166.8327848  87.8802115 130.2099757 165.9296163  88.9712000
 128.7112477 165.8740210  88.8043451 128.0921405 165.0072373  89.8773042
 126.5858159 165.1391808  89.8027451 125.9680844 164.3380000  88.6540000
 124.4220000 164.3380000  88.6540000 123.8146962 165.7647263  88.6540000
 124.3125752 166.6912788  87.5414628 123.7578467 168.1047891  87.7640727
 124.2653630 169.0682987  86.6960697 123.7134345 170.4794171  86.9168251
 124.2219850 171.4196350  85.8216482 123.6752930 172.8347717  85.9987523
 124.1878685 173.7521607  84.9008112 123.8985855 163.6881111  90.0010708
 124.2174433 164.5060878  91.2454143 123.6753105 163.8664234  92.5198002
 124.1033195 164.7303543  93.6999314 123.5870424 164.2090436  95.0345243
 124.0749724 165.1228103  96.1582741 123.5855094 164.6440682  97.5154483
 124.0733657 165.5550515  98.6293876 123.8671881 163.4673906  87.4876574
 124.2207005 161.9815280  87.3774780 123.8269989 161.0468091  88.5259994
 122.3189551 161.0621187  88.7809279 121.6444240 160.4122166  87.5904070
 120.1360011 160.4829084  87.5990254 119.6558935 159.7873068  86.3275470
 118.1478128 159.7840083  86.2354067 130.3670000 160.0850000  85.5860000
 130.2900455 159.7143397  85.5936543 130.2075611 159.3824972  87.3335043
 132.5739754 167.3196320  88.9428291 132.7141727 165.9162427  87.8774485
 130.4669720 166.4456836  86.9000912 130.3278237 167.8324455  87.9798742
 130.4732239 166.3228512  89.9582884 130.6384698 164.9207144  88.8919043
 128.4543187 165.4887845  87.8175598 128.2978951 166.8920287  88.8753450
 128.4262658 165.3452563  90.8635970 128.4063866 163.9617500  89.7735358
 126.2967068 166.1949578  89.7575596 126.2736052 164.7973389  90.7698530
 126.2883425 163.2949625  88.7033618 126.2823881 164.7404737  87.6862644
 124.0612357 166.2336140  89.5964736 122.7263203 165.6506983  88.6002458
 123.9920002 166.3387926  86.5554638 125.4057742 166.7475952  87.5329588
 124.0619731 168.4645757  88.7551851 122.6615120 168.0752478  87.7516421
 123.9709548 168.7067877  85.7062164 125.3615354 169.0987619  86.7205471
 124.0190479 170.8481915  87.8905017 122.6167292 170.4547877  86.9012742
 123.9255892 171.0328654  84.8403420 125.3180986 171.4442493  85.8433350
 123.9757766 173.2337647  86.9747785 122.5800217 172.8183078  85.9753739
 125.2809208 173.8154951  84.9213196 123.7850697 174.7608999  85.0293585
 123.8848333 173.3878719  83.9133785 124.3530542 162.6969619  90.0821353
 122.8106585 163.5775741  89.8917896 123.7636181 165.4980562  91.1891875
 125.2988946 164.6367973  91.3412741 124.0607371 162.8440534  92.6330741
 122.5804861 163.8020040  92.4725076 123.7405385 165.7553520  93.5504737
 125.1995863 164.7814758  93.7301921 123.9486746 163.1848178  95.2008960
 122.4939449 164.1771222  95.0248867 123.7201845 166.1462743  95.9796315
 125.1704190 165.1588191  96.1551142 123.9397463 163.6231405  97.7031609
 122.4880939 164.6123802  97.5296289 125.1683060 165.5876533  98.6561465
 123.7199238 165.1942630  99.6002081 123.7037895 166.5764462  98.4895654
 124.2800187 163.8982503  86.5713470 122.7819227 163.6192412  87.4709758
 125.2587693 161.8349571  87.0752213 123.7330396 161.6289919  86.4628611
 124.3920450 161.2397473  89.4408266 124.1297210 160.0241249  88.2574306
 121.9445027 162.0854618  88.9259114 122.0878803 160.5166479  89.7024419
 121.9743367 159.3671193  87.5347990 121.9639557 160.8907440  86.6627341
 119.8112828 161.5330481  87.6013643 119.7324417 160.0039961  88.4937257
 120.0271578 158.7556438  86.3103392 120.0727045 160.2881868  85.4447974
 117.7138941 159.2861213  87.1065216 117.8331443 159.2520585  85.3345859
 117.7661053 160.8083538  86.1873582 132.2980000 157.0180000  80.9750000
 121.8830000 168.9820000  90.2720000 128.1508435 171.4852258  91.2108018
 126.6216208 171.4943423  91.2108476 126.0569748 170.0723454  91.2099514
 124.5287844 170.0789019  91.2093803 123.9572430 168.6790000  91.2090000
 122.6030000 168.6790000  91.2090000 124.6074269 167.6467992  91.2084242
 121.6960000 169.5830000  88.4140000 121.3249627 169.5826082  89.5474083
 121.3219482 168.9666945  91.2114991 128.5200424 170.9508952  92.0942020
 128.5207372 170.9499623  90.3292715 126.2582267 172.0339011  90.3284328
 126.2571634 172.0339044  92.0933625 126.4231151 169.5284740  92.0889224
 126.4230361 169.5299952  90.3287225 124.1615586 170.5973983  90.3171832
 124.1617875 170.5968719  92.1026810 122.2107631 169.5723881  91.2090000
 130.8290000 159.8170000 104.5160000 132.2787774 166.9182005 105.9421438
 130.7696515 166.8327848 105.8552115 130.2099757 165.9296163 106.9462000
 128.7112477 165.8740210 106.7793451 128.0921405 165.0072373 107.8523042
 126.5858159 165.1391808 107.7777451 125.9680844 164.3380000 106.6290000
 124.4220000 164.3380000 106.6290000 123.8146962 165.7647263 106.6290000
 124.3125752 166.6912788 105.5164628 123.7578467 168.1047891 105.7390727
 124.2653630 169.0682987 104.6710697 123.7134345 170.4794171 104.8918251
 124.2219850 171.4196350 103.7966482 123.6752930 172.8347717 103.9737523
 124.1878685 173.7521607 102.8758112 123.8985855 163.6881111 107.9760708
 124.2174433 164.5060878 109.2204143 123.6753105 163.8664234 110.4948002
 124.1033195 164.7303543 111.6749314 123.5870424 164.2090436 113.0095243
 124.0749724 165.1228103 114.1332741 123.5855094 164.6440682 115.4904483
 124.0733657 165.5550515 116.6043876 123.8671881 163.4673906 105.4626574
 124.2207005 161.9815280 105.3524780 123.8269989 161.0468091 106.5009994
 122.3189551 161.0621187 106.7559279 121.6444240 160.4122166 105.5654070
 120.1360011 160.4829084 105.5740254 119.6558935 159.7873068 104.3025470
 118.1478128 159.7840083 104.2104067 130.3670000 160.0850000 103.5610000
 130.2900455 159.7143397 103.5686543 130.2075611 159.3824972 105.3085043
 132.5739754 167.3196320 106.9178291 132.7141727 165.9162427 105.8524485
 130.4669720 166.4456836 104.8750912 130.3278237 167.8324455 105.9548742
 130.4732239 166.3228512 107.9332884 130.6384698 164.9207144 106.8669043
 128.4543187 165.4887845 105.7925598 128.2978951 166.8920287 106.8503450
 128.4262658 165.3452563 108.8385970 128.4063866 163.9617500 107.7485358
 126.2967068 166.1949578 107.7325596 126.2736052 164.7973389 108.7448530
 126.2883425 163.2949625 106.6783618 126.2823881 164.7404737 105.6612644
 124.0612357 166.2336140 107.5714736 122.7263203 165.6506983 106.5752458
 123.9920002 166.3387926 104.5304638 125.4057742 166.7475952 105.5079588
 124.0619731 168.4645757 106.7301851 122.6615120 168.0752478 105.7266421
 123.9709548 168.7067877 103.6812164 125.3615354 169.0987619 104.6955471
 124.0190479 170.8481915 105.8655017 122.6167292 170.4547877 104.8762742
 123.9255892 171.0328654 102.8153420 125.3180986 171.4442493 103.8183350
 123.9757766 173.2337647 104.9497785 122.5800217 172.8183078 103.9503739
 125.2809208 173.8154951 102.8963196 123.7850697 174.7608999 103.0043585
 123.8848333 173.3878719 101.8883785 124.3530542 162.6969619 108.0571353
 122.8106585 163.5775741 107.8667896 123.7636181 165.4980562 109.1641875
 125.2988946 164.6367973 109.3162741 124.0607371 162.8440534 110.6080741
 122.5804861 163.8020040 110.4475076 123.7405385 165.7553520 111.5254737
 125.1995863 164.7814758 111.7051921 123.9486746 163.1848178 113.1758960
 122.4939449 164.1771222 112.9998867 123.7201845 166.1462743 113.9546315
 125.1704190 165.1588191 114.1301142 123.9397463 163.6231405 115.6781609
 122.4880939 164.6123802 115.5046289 125.1683060 165.5876533 116.6311465
 123.7199238 165.1942630 117.5752081 123.7037895 166.5764462 116.4645654
 124.2800187 163.8982503 104.5463470 122.7819227 163.6192412 105.4459758
 125.2587693 161.8349571 105.0502213 123.7330396 161.6289919 104.4378611
 124.3920450 161.2397473 107.4158266 124.1297210 160.0241249 106.2324306
 121.9445027 162.0854618 106.9009114 122.0878803 160.5166479 107.6774419
 121.9743367 159.3671193 105.5097990 121.9639557 160.8907440 104.6377341
 119.8112828 161.5330481 105.5763643 119.7324417 160.0039961 106.4687257
 120.0271578 158.7556438 104.2853392 120.0727045 160.2881868 103.4197974
 117.7138941 159.2861213 105.0815216 117.8331443 159.2520585 103.3095859
 117.7661053 160.8083538 104.1623582 132.2980000 157.0180000  98.9500000
 121.8830000 168.9820000 108.2470000 128.1508435 171.4852258 109.1858018
 126.6216208 171.4943423 109.1858476 126.0569748 170.0723454 109.1849514
 124.5287844 170.0789019 109.1843803 123.9572430 168.6790000 109.1840000
 122.6030000 168.6790000 109.1840000 124.6074269 167.6467992 109.1834242
 121.6960000 169.5830000 106.3890000 121.3249627 169.5826082 107.5224083
 121.3219482 168.9666945 109.1864991 128.5200424 170.9508952 110.0692020
 128.5207372 170.9499623 108.3042715 126.2582267 172.0339011 108.3034328
 126.2571634 172.0339044 110.0683625 126.4231151 169.5284740 110.0639224
 126.4230361 169.5299952 108.3037225 124.1615586 170.5973983 108.2921832
 124.1617875 170.5968719 110.0776810 122.2107631 169.5723881 109.1840000
 130.8290000 159.8170000 122.4900000 132.2787774 166.9182005 123.9161438
 130.7696515 166.8327848 123.8292115 130.2099757 165.9296163 124.9202000
 128.7112477 165.8740210 124.7533451 128.0921405 165.0072373 125.8263042
 126.5858159 165.1391808 125.7517451 125.9680844 164.3380000 124.6030000
 124.4220000 164.3380000 124.6030000 123.8146962 165.7647263 124.6030000
 124.3125752 166.6912788 123.4904628 123.7578467 168.1047891 123.7130727
 124.2653630 169.0682987 122.6450697 123.7134345 170.4794171 122.8658251
 124.2219850 171.4196350 121.7706482 123.6752930 172.8347717 121.9477523
 124.1878685 173.7521607 120.8498112 123.8985855 163.6881111 125.9500708
 124.2174433 164.5060878 127.1944143 123.6753105 163.8664234 128.4688002
 124.1033195 164.7303543 129.6489314 123.5870424 164.2090436 130.9835243
 124.0749724 165.1228103 132.1072741 123.5855094 164.6440682 133.4644483
 124.0733657 165.5550515 134.5783876 123.8671881 163.4673906 123.4366574
 124.2207005 161.9815280 123.3264780 123.8269989 161.0468091 124.4749994
 122.3189551 161.0621187 124.7299279 121.6444240 160.4122166 123.5394070
 120.1360011 160.4829084 123.5480254 119.6558935 159.7873068 122.2765470
 118.1478128 159.7840083 122.1844067 130.3670000 160.0850000 121.5350000
 130.2900455 159.7143397 121.5426543 130.2075611 159.3824972 123.2825043
 132.5739754 167.3196320 124.8918291 132.7141727 165.9162427 123.8264485
 130.4669720 166.4456836 122.8490912 130.3278237 167.8324455 123.9288742
 130.4732239 166.3228512 125.9072884 130.6384698 164.9207144 124.8409043
 128.4543187 165.4887845 123.7665598 128.2978951 166.8920287 124.8243450
 128.4262658 165.3452563 126.8125970 128.4063866 163.9617500 125.7225358
 126.2967068 166.1949578 125.7065596 126.2736052 164.7973389 126.7188530
 126.2883425 163.2949625 124.6523618 126.2823881 164.7404737 123.6352644
 124.0612357 166.2336140 125.5454736 122.7263203 165.6506983 124.5492458
 123.9920002 166.3387926 122.5044638 125.4057742 166.7475952 123.4819588
 124.0619731 168.4645757 124.7041851 122.6615120 168.0752478 123.7006421
 123.9709548 168.7067877 121.6552164 125.3615354 169.0987619 122.6695471
 124.0190479 170.8481915 123.8395017 122.6167292 170.4547877 122.8502742
 123.9255892 171.0328654 120.7893420 125.3180986 171.4442493 121.7923350
 123.9757766 173.2337647 122.9237785 122.5800217 172.8183078 121.9243739
 125.2809208 173.8154951 120.8703196 123.7850697 174.7608999 120.9783585
 123.8848333 173.3878719 119.8623785 124.3530542 162.6969619 126.0311353
 122.8106585 163.5775741 125.8407896 123.7636181 165.4980562 127.1381875
 125.2988946 164.6367973 127.2902741 124.0607371 162.8440534 128.5820741
 122.5804861 163.8020040 128.4215076 123.7405385 165.7553520 129.4994737
 125.1995863 164.7814758 129.6791921 123.9486746 163.1848178 131.1498960
 122.4939449 164.1771222 130.9738867 123.7201845 166.1462743 131.9286315
 125.1704190 165.1588191 132.1041142 123.9397463 163.6231405 133.6521609
 122.4880939 164.6123802 133.4786289 125.1683060 165.5876533 134.6051465
 123.7199238 165.1942630 135.5492081 123.7037895 166.5764462 134.4385654
 124.2800187 163.8982503 122.5203470 122.7819227 163.6192412 123.4199758
 125.2587693 161.8349571 123.0242213 123.7330396 161.6289919 122.4118611
 124.3920450 161.2397473 125.3898266 124.1297210 160.0241249 124.2064306
 121.9445027 162.0854618 124.8749114 122.0878803 160.5166479 125.6514419
 121.9743367 159.3671193 123.4837990 121.9639557 160.8907440 122.6117341
 119.8112828 161.5330481 123.5503643 119.7324417 160.0039961 124.4427257
 120.0271578 158.7556438 122.2593392 120.0727045 160.2881868 121.3937974
 117.7138941 159.2861213 123.0555216 117.8331443 159.2520585 121.2835859
 117.7661053 160.8083538 122.1363582 132.2980000 157.0180000 116.9240000
 121.8830000 168.9820000 126.2210000 128.1508435 171.4852258 127.1598018
 126.6216208 171.4943423 127.1598476 126.0569748 170.0723454 127.1589514
 124.5287844 170.0789019 127.1583803 123.9572430 168.6790000 127.1580000
 122.6030000 168.6790000 127.1580000 124.6074269 167.6467992 127.1574242
 121.6960000 169.5830000 124.3630000 121.3249627 169.5826082 125.4964083
 121.3219482 168.9666945 127.1604991 128.5200424 170.9508952 128.0432020
 128.5207372 170.9499623 126.2782715 126.2582267 172.0339011 126.2774328
 126.2571634 172.0339044 128.0423625 126.4231151 169.5284740 128.0379224
 126.4230361 169.5299952 126.2777225 124.1615586 170.5973983 126.2661832
 124.1617875 170.5968719 128.0516810 122.2107631 169.5723881 127.1580000
 130.8290000 159.8170000 140.4650000 132.2787774 166.9182005 141.8911438
 130.7696515 166.8327848 141.8042115 130.2099757 165.9296163 142.8952000
 128.7112477 165.8740210 142.7283451 128.0921405 165.0072373 143.8013042
 126.5858159 165.1391808 143.7267451 125.9680844 164.3380000 142.5780000
 124.4220000 164.3380000 142.5780000 123.8146962 165.7647263 142.5780000
 124.3125752 166.6912788 141.4654628 123.7578467 168.1047891 141.6880727
 124.2653630 169.0682987 140.6200697 123.7134345 170.4794171 140.8408251
 124.2219850 171.4196350 139.7456482 123.6752930 172.8347717 139.9227523
 124.1878685 173.7521607 138.8248112 123.8985855 163.6881111 143.9250708
 124.2174433 164.5060878 145.1694143 123.6753105 163.8664234 146.4438002
 124.1033195 164.7303543 147.6239314 123.5870424 164.2090436 148.9585243
 124.0749724 165.1228103 150.0822741 123.5855094 164.6440682 151.4394483
 124.0733657 165.5550515 152.5533876 123.8671881 163.4673906 141.4116574
 124.2207005 161.9815280 141.3014780 123.8269989 161.0468091 142.4499994
 122.3189551 161.0621187 142.7049279 121.6444240 160.4122166 141.5144070
 120.1360011 160.4829084 141.5230254 119.6558935 159.7873068 140.2515470
 118.1478128 159.7840083 140.1594067 130.3670000 160.0850000 139.5100000
 130.2900455 159.7143397 139.5176543 130.2075611 159.3824972 141.2575043
 132.5739754 167.3196320 142.8668291 132.7141727 165.9162427 141.8014485
 130.4669720 166.4456836 140.8240912 130.3278237 167.8324455 141.9038742
 130.4732239 166.3228512 143.8822884 130.6384698 164.9207144 142.8159043
 128.4543187 165.4887845 141.7415598 128.2978951 166.8920287 142.7993450
 128.4262658 165.3452563 144.7875970 128.4063866 163.9617500 143.6975358
 126.2967068 166.1949578 143.6815596 126.2736052 164.7973389 144.6938530
 126.2883425 163.2949625 142.6273618 126.2823881 164.7404737 141.6102644
 124.0612357 166.2336140 143.5204736 122.7263203 165.6506983 142.5242458
 123.9920002 166.3387926 140.4794638 125.4057742 166.7475952 141.4569588
 124.0619731 168.4645757 142.6791851 122.6615120 168.0752478 141.6756421
 123.9709548 168.7067877 139.6302164 125.3615354 169.0987619 140.6445471
 124.0190479 170.8481915 141.8145017 122.6167292 170.4547877 140.8252742
 123.9255892 171.0328654 138.7643420 125.3180986 171.4442493 139.7673350
 123.9757766 173.2337647 140.8987785 122.5800217 172.8183078 139.8993739
 125.2809208 173.8154951 138.8453196 123.7850697 174.7608999 138.9533585
 123.8848333 173.3878719 137.8373785 124.3530542 162.6969619 144.0061353
 122.8106585 163.5775741 143.8157896 123.7636181 165.4980562 145.1131875
 125.2988946 164.6367973 145.2652741 124.0607371 162.8440534 146.5570741
 122.5804861 163.8020040 146.3965076 123.7405385 165.7553520 147.4744737
 125.1995863 164.7814758 147.6541921 123.9486746 163.1848178 149.1248960
 122.4939449 164.1771222 148.9488867 123.7201845 166.1462743 149.9036315
 125.1704190 165.1588191 150.0791142 123.9397463 163.6231405 151.6271609
 122.4880939 164.6123802 151.4536289 125.1683060 165.5876533 152.5801465
 123.7199238 165.1942630 153.5242081 123.7037895 166.5764462 152.4135654
 124.2800187 163.8982503 140.4953470 122.7819227 163.6192412 141.3949758
 125.2587693 161.8349571 140.9992213 123.7330396 161.6289919 140.3868611
 124.3920450 161.2397473 143.3648266 124.1297210 160.0241249 142.1814306
 121.9445027 162.0854618 142.8499114 122.0878803 160.5166479 143.6264419
 121.9743367 159.3671193 141.4587990 121.9639557 160.8907440 140.5867341
 119.8112828 161.5330481 141.5253643 119.7324417 160.0039961 142.4177257
 120.0271578 158.7556438 140.2343392 120.0727045 160.2881868 139.3687974
 117.7138941 159.2861213 141.0305216 117.8331443 159.2520585 139.2585859
 117.7661053 160.8083538 140.1113582 132.2980000 157.0180000 134.8990000
 121.8830000 168.9820000 144.1960000 128.1508435 171.4852258 145.1348018
 126.6216208 171.4943423 145.1348476 126.0569748 170.0723454 145.1339514
 124.5287844 170.0789019 145.1333803 123.9572430 168.6790000 145.1330000
 122.6030000 168.6790000 145.1330000 124.6074269 167.6467992 145.1324242
 121.6960000 169.5830000 142.3380000 121.3249627 169.5826082 143.4714083
 121.3219482 168.9666945 145.1354991 128.5200424 170.9508952 146.0182020
 128.5207372 170.9499623 144.2532715 126.2582267 172.0339011 144.2524328
 126.2571634 172.0339044 146.0173625 126.4231151 169.5284740 146.0129224
 126.4230361 169.5299952 144.2527225 124.1615586 170.5973983 144.2411832
 124.1617875 170.5968719 146.0266810 122.2107631 169.5723881 145.1330000
 130.8290000 159.8170000 158.4400000 132.2787774 166.9182005 159.8661438
 130.7696515 166.8327848 159.7792115 130.2099757 165.9296163 160.8702000
 128.7112477 165.8740210 160.7033451 128.0921405 165.0072373 161.7763042
 126.5858159 165.1391808 161.7017451 125.9680844 164.3380000 160.5530000
 124.4220000 164.3380000 160.5530000 123.8146962 165.7647263 160.5530000
 124.3125752 166.6912788 159.4404628 123.7578467 168.1047891 159.6630727
 124.2653630 169.0682987 158.5950697 123.7134345 170.4794171 158.8158251
 124.2219850 171.4196350 157.7206482 123.6752930 172.8347717 157.8977523
 124.1878685 173.7521607 156.7998112 123.8985855 163.6881111 161.9000708
 124.2174433 164.5060878 163.1444143 123.6753105 163.8664234 164.4188002
 124.1033195 164.7303543 165.5989314 123.5870424 164.2090436 166.9335243
 124.0749724 165.1228103 168.0572741 123.5855094 164.6440682 169.4144483
 124.0733657 165.5550515 170.5283876 123.8671881 163.4673906 159.3866574
 124.2207005 161.9815280 159.2764780 123.8269989 161.0468091 160.4249994
 122.3189551 161.0621187 160.6799279 121.6444240 160.4122166 159.4894070
 120.1360011 160.4829084 159.4980254 119.6558935 159.7873068 158.2265470
 118.1478128 159.7840083 158.1344067 130.3670000 160.0850000 157.4850000
 130.2900455 159.7143397 157.4926543 130.2075611 159.3824972 159.2325043
 132.5739754 167.3196320 160.8418291 132.7141727 165.9162427 159.7764485
 130.4669720 166.4456836 158.7990912 130.3278237 167.8324455 159.8788742
 130.4732239 166.3228512 161.8572884 130.6384698 164.9207144 160.7909043
 128.4543187 165.4887845 159.7165598 128.2978951 166.8920287 160.7743450
 128.4262658 165.3452563 162.7625970 128.4063866 163.9617500 161.6725358
 126.2967068 166.1949578 161.6565596 126.2736052 164.7973389 162.6688530
 126.2883425 163.2949625 160.6023618 126.2823881 164.7404737 159.5852644
 124.0612357 166.2336140 161.4954736 122.7263203 165.6506983 160.4992458
 123.9920002 166.3387926 158.4544638 125.4057742 166.7475952 159.4319588
 124.0619731 168.4645757 160.6541851 122.6615120 168.0752478 159.6506421
 123.9709548 168.7067877 157.6052164 125.3615354 169.0987619 158.6195471
 124.0190479 170.8481915 159.7895017 122.6167292 170.4547877 158.8002742
 123.9255892 171.0328654 156.7393420 125.3180986 171.4442493 157.7423350
 123.9757766 173.2337647 158.8737785 122.5800217 172.8183078 157.8743739
 125.2809208 173.8154951 156.8203196 123.7850697 174.7608999 156.9283585
 123.8848333 173.3878719 155.8123785 124.3530542 162.6969619 161.9811353
 122.8106585 163.5775741 161.7907896 123.7636181 165.4980562 163.0881875
 125.2988946 164.6367973 163.2402741 124.0607371 162.8440534 164.5320741
 122.5804861 163.8020040 164.3715076 123.7405385 165.7553520 165.4494737
 125.1995863 164.7814758 165.6291921 123.9486746 163.1848178 167.0998960
 122.4939449 164.1771222 166.9238867 123.7201845 166.1462743 167.8786315
 125.1704190 165.1588191 168.0541142 123.9397463 163.6231405 169.6021609
 122.4880939 164.6123802 169.4286289 125.1683060 165.5876533 170.5551465
 123.7199238 165.1942630 171.4992081 123.7037895 166.5764462 170.3885654
 124.2800187 163.8982503 158.4703470 122.7819227 163.6192412 159.3699758
 125.2587693 161.8349571 158.9742213 123.7330396 161.6289919 158.3618611
 124.3920450 161.2397473 161.3398266 124.1297210 160.0241249 160.1564306
 121.9445027 162.0854618 160.8249114 122.0878803 160.5166479 161.6014419
 121.9743367 159.3671193 159.4337990 121.9639557 160.8907440 158.5617341
 119.8112828 161.5330481 159.5003643 119.7324417 160.0039961 160.3927257
 120.0271578 158.7556438 158.2093392 120.0727045 160.2881868 157.3437974
 117.7138941 159.2861213 159.0055216 117.8331443 159.2520585 157.2335859
 117.7661053 160.8083538 158.0863582 132.2980000 157.0180000 152.8740000
 121.8830000 168.9820000 162.1710000 128.1508435 171.4852258 163.1098018
 126.6216208 171.4943423 163.1098476 126.0569748 170.0723454 163.1089514
 124.5287844 170.0789019 163.1083803 123.9572430 168.6790000 163.1080000
 122.6030000 168.6790000 163.1080000 124.6074269 167.6467992 163.1074242
 121.6960000 169.5830000 160.3130000 121.3249627 169.5826082 161.4464083
 121.3219482 168.9666945 163.1104991 128.5200424 170.9508952 163.9932020
 128.5207372 170.9499623 162.2282715 126.2582267 172.0339011 162.2274328
 126.2571634 172.0339044 163.9923625 126.4231151 169.5284740 163.9879224
 126.4230361 169.5299952 162.2277225 124.1615586 170.5973983 162.2161832
 124.1617875 170.5968719 164.0016810 122.2107631 169.5723881 163.1080000
 130.8290000 159.8170000 176.4150000 132.2787774 166.9182005 177.8411438
 130.7696515 166.8327848 177.7542115 130.2099757 165.9296163 178.8452000
 128.7112477 165.8740210 178.6783451 128.0921405 165.0072373 179.7513042
 126.5858159 165.1391808 179.6767451 125.9680844 164.3380000 178.5280000
 124.4220000 164.3380000 178.5280000 123.8146962 165.7647263 178.5280000
 124.3125752 166.6912788 177.4154628 123.7578467 168.1047891 177.6380727
 124.2653630 169.0682987 176.5700697 123.7134345 170.4794171 176.7908251
 124.2219850 171.4196350 175.6956482 123.6752930 172.8347717 175.8727523
 124.1878685 173.7521607 174.7748112 123.8985855 163.6881111 179.8750708
 124.2174433 164.5060878 181.1194143 123.6753105 163.8664234 182.3938002
 124.1033195 164.7303543 183.5739314 123.5870424 164.2090436 184.9085243
 124.0749724 165.1228103 186.0322741 123.5855094 164.6440682 187.3894483
 124.0733657 165.5550515 188.5033876 123.8671881 163.4673906 177.3616574
 124.2207005 161.9815280 177.2514780 123.8269989 161.0468091 178.3999994
 122.3189551 161.0621187 178.6549279 121.6444240 160.4122166 177.4644070
 120.1360011 160.4829084 177.4730254 119.6558935 159.7873068 176.2015470
 118.1478128 159.7840083 176.1094067 130.3670000 160.0850000 175.4600000
 130.2900455 159.7143397 175.4676543 130.2075611 159.3824972 177.2075043
 132.5739754 167.3196320 178.8168291 132.7141727 165.9162427 177.7514485
 130.4669720 166.4456836 176.7740912 130.3278237 167.8324455 177.8538742
 130.4732239 166.3228512 179.8322884 130.6384698 164.9207144 178.7659043
 128.4543187 165.4887845 177.6915598 128.2978951 166.8920287 178.7493450
 128.4262658 165.3452563 180.7375970 128.4063866 163.9617500 179.6475358
 126.2967068 166.1949578 179.6315596 126.2736052 164.7973389 180.6438530
 126.2883425 163.2949625 178.5773618 126.2823881 164.7404737 177.5602644
 124.0612357 166.2336140 179.4704736 122.7263203 165.6506983 178.4742458
 123.9920002 166.3387926 176.4294638 125.4057742 166.7475952 177.4069588
 124.0619731 168.4645757 178.6291851 122.6615120 168.0752478 177.6256421
 123.9709548 168.7067877 175.5802164 125.3615354 169.0987619 176.5945471
 124.0190479 170.8481915 177.7645017 122.6167292 170.4547877 176.7752742
 123.9255892 171.0328654 174.7143420 125.3180986 171.4442493 175.7173350
 123.9757766 173.2337647 176.8487785 122.5800217 172.8183078 175.8493739
 125.2809208 173.8154951 174.7953196 123.7850697 174.7608999 174.9033585
 123.8848333 173.3878719 173.7873785 124.3530542 162.6969619 179.9561353
 122.8106585 163.5775741 179.7657896 123.7636181 165.4980562 181.0631875
 125.2988946 164.6367973 181.2152741 124.0607371 162.8440534 182.5070741
 122.5804861 163.8020040 182.3465076 123.7405385 165.7553520 183.4244737
 125.1995863 164.7814758 183.6041921 123.9486746 163.1848178 185.0748960
 122.4939449 164.1771222 184.8988867 123.7201845 166.1462743 185.8536315
 125.1704190 165.1588191 186.0291142 123.9397463 163.6231405 187.5771609
 122.4880939 164.6123802 187.4036289 125.1683060 165.5876533 188.5301465
 123.7199238 165.1942630 189.4742081 123.7037895 166.5764462 188.3635654
 124.2800187 163.8982503 176.4453470 122.7819227 163.6192412 177.3449758
 125.2587693 161.8349571 176.9492213 123.7330396 161.6289919 176.3368611
 124.3920450 161.2397473 179.3148266 124.1297210 160.0241249 178.1314306
 121.9445027 162.0854618 178.7999114 122.0878803 160.5166479 179.5764419
 121.9743367 159.3671193 177.4087990 121.9639557 160.8907440 176.5367341
 119.8112828 161.5330481 177.4753643 119.7324417 160.0039961 178.3677257
 120.0271578 158.7556438 176.1843392 120.0727045 160.2881868 175.3187974
 117.7138941 159.2861213 176.9805216 117.8331443 159.2520585 175.2085859
 117.7661053 160.8083538 176.0613582 132.2980000 157.0180000 170.8490000
 121.8830000 168.9820000 180.1460000 128.1508435 171.4852258 181.0848018
 126.6216208 171.4943423 181.0848476 126.0569748 170.0723454 181.0839514
 124.5287844 170.0789019 181.0833803 123.9572430 168.6790000 181.0830000
 122.6030000 168.6790000 181.0830000 124.6074269 167.6467992 181.0824242
 121.6960000 169.5830000 178.2880000 121.3249627 169.5826082 179.4214083
 121.3219482 168.9666945 181.0854991 128.5200424 170.9508952 181.9682020
 128.5207372 170.9499623 180.2032715 126.2582267 172.0339011 180.2024328
 126.2571634 172.0339044 181.9673625 126.4231151 169.5284740 181.9629224
 126.4230361 169.5299952 180.2027225 124.1615586 170.5973983 180.1911832
 124.1617875 170.5968719 181.9766810 122.2107631 169.5723881 181.0830000
 130.8290000 178.4210000  68.5660000 132.2787774 185.5222005  69.9921438
 130.7696515 185.4367848  69.9052115 130.2099757 184.5336163  70.9962000
 128.7112477 184.4780210  70.8293451 128.0921405 183.6112373  71.9023042
 126.5858159 183.7431808  71.8277451 125.9680844 182.9420000  70.6790000
 124.4220000 182.9420000  70.6790000 123.8146962 184.3687263  70.6790000
 124.3125752 185.2952788  69.5664628 123.7578467 186.7087891  69.7890727
 124.2653630 187.6722987  68.7210697 123.7134345 189.0834171  68.9418251
 124.2219850 190.0236350  67.8466482 123.6752930 191.4387717  68.0237523
 124.1878685 192.3561607  66.9258112 123.8985855 182.2921111  72.0260708
 124.2174433 183.1100878  73.2704143 123.6753105 182.4704234  74.5448002
 124.1033195 183.3343543  75.7249314 123.5870424 182.8130436  77.0595243
 124.0749724 183.7268103  78.1832741 123.5855094 183.2480682  79.5404483
 124.0733657 184.1590515  80.6543876 123.8671881 182.0713906  69.5126574
 124.2207005 180.5855280  69.4024780 123.8269989 179.6508091  70.5509994
 122.3189551 179.6661187  70.8059279 121.6444240 179.0162166  69.6154070
 120.1360011 179.0869084  69.6240254 119.6558935 178.3913068  68.3525470
 118.1478128 178.3880083  68.2604067 130.3670000 178.6890000  67.6110000
 130.2900455 178.3183397  67.6186543 130.2075611 177.9864972  69.3585043
 132.5739754 185.9236320  70.9678291 132.7141727 184.5202427  69.9024485
 130.4669720 185.0496836  68.9250912 130.3278237 186.4364455  70.0048742
 130.4732239 184.9268512  71.9832884 130.6384698 183.5247144  70.9169043
 128.4543187 184.0927845  69.8425598 128.2978951 185.4960287  70.9003450
 128.4262658 183.9492563  72.8885970 128.4063866 182.5657500  71.7985358
 126.2967068 184.7989578  71.7825596 126.2736052 183.4013389  72.7948530
 126.2883425 181.8989625  70.7283618 126.2823881 183.3444737  69.7112644
 124.0612357 184.8376140  71.6214736 122.7263203 184.2546983  70.6252458
 123.9920002 184.9427926  68.5804638 125.4057742 185.3515952  69.5579588
 124.0619731 187.0685757  70.7801851 122.6615120 186.6792478  69.7766421
 123.9709548 187.3107877  67.7312164 125.3615354 187.7027619  68.7455471
 124.0190479 189.4521915  69.9155017 122.6167292 189.0587877  68.9262742
 123.9255892 189.6368654  66.8653420 125.3180986 190.0482493  67.8683350
 123.9757766 191.8377647  68.9997785 122.5800217 191.4223078  68.0003739
 125.2809208 192.4194951  66.9463196 123.7850697 193.3648999  67.0543585
 123.8848333 191.9918719  65.9383785 124.3530542 181.3009619  72.1071353
 122.8106585 182.1815741  71.9167896 123.7636181 184.1020562  73.2141875
 125.2988946 183.2407973  73.3662741 124.0607371 181.4480534  74.6580741
 122.5804861 182.4060040  74.4975076 123.7405385 184.3593520  75.5754737
 125.1995863 183.3854758  75.7551921 123.9486746 181.7888178  77.2258960
 122.4939449 182.7811222  77.0498867 123.7201845 184.7502743  78.0046315
 125.1704190 183.7628191  78.1801142 123.9397463 182.2271405  79.7281609
 122.4880939 183.2163802  79.5546289 125.1683060 184.1916533  80.6811465
 123.7199238 183.7982630  81.6252081 123.7037895 185.1804462  80.5145654
 124.2800187 182.5022503  68.5963470 122.7819227 182.2232412  69.4959758
 125.2587693 180.4389571  69.1002213 123.7330396 180.2329919  68.4878611
 124.3920450 179.8437473  71.4658266 124.1297210 178.6281249  70.2824306
 121.9445027 180.6894618  70.9509114 122.0878803 179.1206479  71.7274419
 121.9743367 177.9711193  69.5597990 121.9639557 179.4947440  68.6877341
 119.8112828 180.1370481  69.6263643 119.7324417 178.6079961  70.5187257
 120.0271578 177.3596438  68.3353392 120.0727045 178.8921868  67.4697974
 117.7138941 177.8901213  69.1315216 117.8331443 177.8560585  67.3595859
 117.7661053 179.4123538  68.2123582 132.2980000 175.6220000  63.0000000
 121.8830000 187.5860000  72.2970000 128.1508435 190.0892258  73.2358018
 126.6216208 190.0983423  73.2358476 126.0569748 188.6763454  73.2349514
 124.5287844 188.6829019  73.2343803 123.9572430 187.2830000  73.2340000
 122.6030000 187.2830000  73.2340000 124.6074269 186.2507992  73.2334242
 121.6960000 188.1870000  70.4390000 121.3249627 188.1866082  71.5724083
 121.3219482 187.5706945  73.2364991 128.5200424 189.5548952  74.1192020
 128.5207372 189.5539623  72.3542715 126.2582267 190.6379011  72.3534328
 126.2571634 190.6379044  74.1183625 126.4231151 188.1324740  74.1139224
 126.4230361 188.1339952  72.3537225 124.1615586 189.2013983  72.3421832
 124.1617875 189.2008719  74.1276810 122.2107631 188.1763881  73.2340000
 130.8290000 178.4210000  86.5410000 132.2787774 185.5222005  87.9671438
 130.7696515 185.4367848  87.8802115 130.2099757 184.5336163  88.9712000
 128.7112477 184.4780210  88.8043451 128.0921405 183.6112373  89.8773042
 126.5858159 183.7431808  89.8027451 125.9680844 182.9420000  88.6540000
 124.4220000 182.9420000  88.6540000 123.8146962 184.3687263  88.6540000
 124.3125752 185.2952788  87.5414628 123.7578467 186.7087891  87.7640727
 124.2653630 187.6722987  86.6960697 123.7134345 189.0834171  86.9168251
 124.2219850 190.0236350  85.8216482 123.6752930 191.4387717  85.9987523
 124.1878685 192.3561607  84.9008112 123.8985855 182.2921111  90.0010708
 124.2174433 183.1100878  91.2454143 123.6753105 182.4704234  92.5198002
 124.1033195 183.3343543  93.6999314 123.5870424 182.8130436  95.0345243
 124.0749724 183.7268103  96.1582741 123.5855094 183.2480682  97.5154483
 124.0733657 184.1590515  98.6293876 123.8671881 182.0713906  87.4876574
 124.2207005 180.5855280  87.3774780 123.8269989 179.6508091  88.5259994
 122.3189551 179.6661187  88.7809279 121.6444240 179.0162166  87.5904070
 120.1360011 179.0869084  87.5990254 119.6558935 178.3913068  86.3275470
 118.1478128 178.3880083  86.2354067 130.3670000 178.6890000  85.5860000
 130.2900455 178.3183397  85.5936543 130.2075611 177.9864972  87.3335043
 132.5739754 185.9236320  88.9428291 132.7141727 184.5202427  87.8774485
 130.4669720 185.0496836  86.9000912 130.3278237 186.4364455  87.9798742
 130.4732239 184.9268512  89.9582884 130.6384698 183.5247144  88.8919043
 128.4543187 184.0927845  87.8175598 128.2978951 185.4960287  88.8753450
 128.4262658 183.9492563  90.8635970 128.4063866 182.5657500  89.7735358
 126.2967068 184.7989578  89.7575596 126.2736052 183.4013389  90.7698530
 126.2883425 181.8989625  88.7033618 126.2823881 183.3444737  87.6862644
 124.0612357 184.8376140  89.5964736 122.7263203 184.2546983  88.6002458
 123.9920002 184.9427926  86.5554638 125.4057742 185.3515952  87.5329588
 124.0619731 187.0685757  88.7551851 122.6615120 186.6792478  87.7516421
 123.9709548 187.3107877  85.7062164 125.3615354 187.7027619  86.7205471
 124.0190479 189.4521915  87.8905017 122.6167292 189.0587877  86.9012742
 123.9255892 189.6368654  84.8403420 125.3180986 190.0482493  85.8433350
 123.9757766 191.8377647  86.9747785 122.5800217 191.4223078  85.9753739
 125.2809208 192.4194951  84.9213196 123.7850697 193.3648999  85.0293585
 123.8848333 191.9918719  83.9133785 124.3530542 181.3009619  90.0821353
 122.8106585 182.1815741  89.8917896 123.7636181 184.1020562  91.1891875
 125.2988946 183.2407973  91.3412741 124.0607371 181.4480534  92.6330741
 122.5804861 182.4060040  92.4725076 123.7405385 184.3593520  93.5504737
 125.1995863 183.3854758  93.7301921 123.9486746 181.7888178  95.2008960
 122.4939449 182.7811222  95.0248867 123.7201845 184.7502743  95.9796315
 125.1704190 183.7628191  96.1551142 123.9397463 182.2271405  97.7031609
 122.4880939 183.2163802  97.5296289 125.1683060 184.1916533  98.6561465
 123.7199238 183.7982630  99.6002081 123.7037895 185.1804462  98.4895654
 124.2800187 182.5022503  86.5713470 122.7819227 182.2232412  87.4709758
 125.2587693 180.4389571  87.0752213 123.7330396 180.2329919  86.4628611
 124.3920450 179.8437473  89.4408266 124.1297210 178.6281249  88.2574306
 121.9445027 180.6894618  88.9259114 122.0878803 179.1206479  89.7024419
 121.9743367 177.9711193  87.5347990 121.9639557 179.4947440  86.6627341
 119.8112828 180.1370481  87.6013643 119.7324417 178.6079961  88.4937257
 120.0271578 177.3596438  86.3103392 120.0727045 178.8921868  85.4447974
 117.7138941 177.8901213  87.1065216 117.8331443 177.8560585  85.3345859
 117.7661053 179.4123538  86.1873582 132.2980000 175.6220000  80.9750000
 121.8830000 187.5860000  90.2720000 128.1508435 190.0892258  91.2108018
 126.6216208 190.0983423  91.2108476 126.0569748 188.6763454  91.2099514
 124.5287844 188.6829019  91.2093803 123.9572430 187.2830000  91.2090000
 122.6030000 187.2830000  91.2090000 124.6074269 186.2507992  91.2084242
 121.6960000 188.1870000  88.4140000 121.3249627 188.1866082  89.5474083
 121.3219482 187.5706945  91.2114991 128.5200424 189.5548952  92.0942020
 128.5207372 189.5539623  90.3292715 126.2582267 190.6379011  90.3284328
 126.2571634 190.6379044  92.0933625 126.4231151 188.1324740  92.0889224
 126.4230361 188.1339952  90.3287225 124.1615586 189.2013983  90.3171832
 124.1617875 189.2008719  92.1026810 122.2107631 188.1763881  91.2090000
 130.8290000 178.4210000 104.5160000 132.2787774 185.5222005 105.9421438
 130.7696515 185.4367848 105.8552115 130.2099757 184.5336163 106.9462000
 128.7112477 184.4780210 106.7793451 128.0921405 183.6112373 107.8523042
 126.5858159 183.7431808 107.7777451 125.9680844 182.9420000 106.6290000
 124.4220000 182.9420000 106.6290000 123.8146962 184.3687263 106.6290000
 124.3125752 185.2952788 105.5164628 123.7578467 186.7087891 105.7390727
 124.2653630 187.6722987 104.6710697 123.7134345 189.0834171 104.8918251
 124.2219850 190.0236350 103.7966482 123.6752930 191.4387717 103.9737523
 124.1878685 192.3561607 102.8758112 123.8985855 182.2921111 107.9760708
 124.2174433 183.1100878 109.2204143 123.6753105 182.4704234 110.4948002
 124.1033195 183.3343543 111.6749314 123.5870424 182.8130436 113.0095243
 124.0749724 183.7268103 114.1332741 123.5855094 183.2480682 115.4904483
 124.0733657 184.1590515 116.6043876 123.8671881 182.0713906 105.4626574
 124.2207005 180.5855280 105.3524780 123.8269989 179.6508091 106.5009994
 122.3189551 179.6661187 106.7559279 121.6444240 179.0162166 105.5654070
 120.1360011 179.0869084 105.5740254 119.6558935 178.3913068 104.3025470
 118.1478128 178.3880083 104.2104067 130.3670000 178.6890000 103.5610000
 130.2900455 178.3183397 103.5686543 130.2075611 177.9864972 105.3085043
 132.5739754 185.9236320 106.9178291 132.7141727 184.5202427 105.8524485
 130.4669720 185.0496836 104.8750912 130.3278237 186.4364455 105.9548742
 130.4732239 184.9268512 107.9332884 130.6384698 183.5247144 106.8669043
 128.4543187 184.0927845 105.7925598 128.2978951 185.4960287 106.8503450
 128.4262658 183.9492563 108.8385970 128.4063866 182.5657500 107.7485358
 126.2967068 184.7989578 107.7325596 126.2736052 183.4013389 108.7448530
 126.2883425 181.8989625 106.6783618 126.2823881 183.3444737 105.6612644
 124.0612357 184.8376140 107.5714736 122.7263203 184.2546983 106.5752458
 123.9920002 184.9427926 104.5304638 125.4057742 185.3515952 105.5079588
 124.0619731 187.0685757 106.7301851 122.6615120 186.6792478 105.7266421
 123.9709548 187.3107877 103.6812164 125.3615354 187.7027619 104.6955471
 124.0190479 189.4521915 105.8655017 122.6167292 189.0587877 104.8762742
 123.9255892 189.6368654 102.8153420 125.3180986 190.0482493 103.8183350
 123.9757766 191.8377647 104.9497785 122.5800217 191.4223078 103.9503739
 125.2809208 192.4194951 102.8963196 123.7850697 193.3648999 103.0043585
 123.8848333 191.9918719 101.8883785 124.3530542 181.3009619 108.0571353
 122.8106585 182.1815741 107.8667896 123.7636181 184.1020562 109.1641875
 125.2988946 183.2407973 109.3162741 124.0607371 181.4480534 110.6080741
 122.5804861 182.4060040 110.4475076 123.7405385 184.3593520 111.5254737
 125.1995863 183.3854758 111.7051921 123.9486746 181.7888178 113.1758960
 122.4939449 182.7811222 112.9998867 123.7201845 184.7502743 113.9546315
 125.1704190 183.7628191 114.1301142 123.9397463 182.2271405 115.6781609
 122.4880939 183.2163802 115.5046289 125.1683060 184.1916533 116.6311465
 123.7199238 183.7982630 117.5752081 123.7037895 185.1804462 116.4645654
 124.2800187 182.5022503 104.5463470 122.7819227 182.2232412 105.4459758
 125.2587693 180.4389571 105.0502213 123.7330396 180.2329919 104.4378611
 124.3920450 179.8437473 107.4158266 124.1297210 178.6281249 106.2324306
 121.9445027 180.6894618 106.9009114 122.0878803 179.1206479 107.6774419
 121.9743367 177.9711193 105.5097990 121.9639557 179.4947440 104.6377341
 119.8112828 180.1370481 105.5763643 119.7324417 178.6079961 106.4687257
 120.0271578 177.3596438 104.2853392 120.0727045 178.8921868 103.4197974
 117.7138941 177.8901213 105.0815216 117.8331443 177.8560585 103.3095859
 117.7661053 179.4123538 104.1623582 132.2980000 175.6220000  98.9500000
 121.8830000 187.5860000 108.2470000 128.1508435 190.0892258 109.1858018
 126.6216208 190.0983423 109.1858476 126.0569748 188.6763454 109.1849514
 124.5287844 188.6829019 109.1843803 123.9572430 187.2830000 109.1840000
 122.6030000 187.2830000 109.1840000 124.6074269 186.2507992 109.1834242
 121.6960000 188.1870000 106.3890000 121.3249627 188.1866082 107.5224083
 121.3219482 187.5706945 109.1864991 128.5200424 189.5548952 110.0692020
 128.5207372 189.5539623 108.3042715 126.2582267 190.6379011 108.3034328
 126.2571634 190.6379044 110.0683625 126.4231151 188.1324740 110.0639224
 126.4230361 188.1339952 108.3037225 124.1615586 189.2013983 108.2921832
 124.1617875 189.2008719 110.0776810 122.2107631 188.1763881 109.1840000
 130.8290000 178.4210000 122.4900000 132.2787774 185.5222005 123.9161438
 130.7696515 185.4367848 123.8292115 130.2099757 184.5336163 124.9202000
 128.7112477 184.4780210 124.7533451 128.0921405 183.6112373 125.8263042
 126.5858159 183.7431808 125.7517451 125.9680844 182.9420000 124.6030000
 124.4220000 182.9420000 124.6030000 123.8146962 184.3687263 124.6030000
 124.3125752 185.2952788 123.4904628 123.7578467 186.7087891 123.7130727
 124.2653630 187.6722987 122.6450697 123.7134345 189.0834171 122.8658251
 124.2219850 190.0236350 121.7706482 123.6752930 191.4387717 121.9477523
 124.1878685 192.3561607 120.8498112 123.8985855 182.2921111 125.9500708
 124.2174433 183.1100878 127.1944143 123.6753105 182.4704234 128.4688002
 124.1033195 183.3343543 129.6489314 123.5870424 182.8130436 130.9835243
 124.0749724 183.7268103 132.1072741 123.5855094 183.2480682 133.4644483
 124.0733657 184.1590515 134.5783876 123.8671881 182.0713906 123.4366574
 124.2207005 180.5855280 123.3264780 123.8269989 179.6508091 124.4749994
 122.3189551 179.6661187 124.7299279 121.6444240 179.0162166 123.5394070
 120.1360011 179.0869084 123.5480254 119.6558935 178.3913068 122.2765470
 118.1478128 178.3880083 122.1844067 130.3670000 178.6890000 121.5350000
 130.2900455 178.3183397 121.5426543 130.2075611 177.9864972 123.2825043
 132.5739754 185.9236320 124.8918291 132.7141727 184.5202427 123.8264485
 130.4669720 185.0496836 122.8490912 130.3278237 186.4364455 123.9288742
 130.4732239 184.9268512 125.9072884 130.6384698 183.5247144 124.8409043
 128.4543187 184.0927845 123.7665598 128.2978951 185.4960287 124.8243450
 128.4262658 183.9492563 126.8125970 128.4063866 182.5657500 125.7225358
 126.2967068 184.7989578 125.7065596 126.2736052 183.4013389 126.7188530
 126.2883425 181.8989625 124.6523618 126.2823881 183.3444737 123.6352644
 124.0612357 184.8376140 125.5454736 122.7263203 184.2546983 124.5492458
 123.9920002 184.9427926 122.5044638 125.4057742 185.3515952 123.4819588
 124.0619731 187.0685757 124.7041851 122.6615120 186.6792478 123.7006421
 123.9709548 187.3107877 121.6552164 125.3615354 187.7027619 122.6695471
 124.0190479 189.4521915 123.8395017 122.6167292 189.0587877 122.8502742
 123.9255892 189.6368654 120.7893420 125.3180986 190.0482493 121.7923350
 123.9757766 191.8377647 122.9237785 122.5800217 191.4223078 121.9243739
 125.2809208 192.4194951 120.8703196 123.7850697 193.3648999 120.9783585
 123.8848333 191.9918719 119.8623785 124.3530542 181.3009619 126.0311353
 122.8106585 182.1815741 125.8407896 123.7636181 184.1020562 127.1381875
 125.2988946 183.2407973 127.2902741 124.0607371 181.4480534 128.5820741
 122.5804861 182.4060040 128.4215076 123.7405385 184.3593520 129.4994737
 125.1995863 183.3854758 129.6791921 123.9486746 181.7888178 131.1498960
 122.4939449 182.7811222 130.9738867 123.7201845 184.7502743 131.9286315
 125.1704190 183.7628191 132.1041142 123.9397463 182.2271405 133.6521609
 122.4880939 183.2163802 133.4786289 125.1683060 184.1916533 134.6051465
 123.7199238 183.7982630 135.5492081 123.7037895 185.1804462 134.4385654
 124.2800187 182.5022503 122.5203470 122.7819227 182.2232412 123.4199758
 125.2587693 180.4389571 123.0242213 123.7330396 180.2329919 122.4118611
 124.3920450 179.8437473 125.3898266 124.1297210 178.6281249 124.2064306
 121.9445027 180.6894618 124.8749114 122.0878803 179.1206479 125.6514419
 121.9743367 177.9711193 123.4837990 121.9639557 179.4947440 122.6117341
 119.8112828 180.1370481 123.5503643 119.7324417 178.6079961 124.4427257
 120.0271578 177.3596438 122.2593392 120.0727045 178.8921868 121.3937974
 117.7138941 177.8901213 123.0555216 117.8331443 177.8560585 121.2835859
 117.7661053 179.4123538 122.1363582 132.2980000 175.6220000 116.9240000
 121.8830000 187.5860000 126.2210000 128.1508435 190.0892258 127.1598018
 126.6216208 190.0983423 127.1598476 126.0569748 188.6763454 127.1589514
 124.5287844 188.6829019 127.1583803 123.9572430 187.2830000 127.1580000
 122.6030000 187.2830000 127.1580000 124.6074269 186.2507992 127.1574242
 121.6960000 188.1870000 124.3630000 121.3249627 188.1866082 125.4964083
 121.3219482 187.5706945 127.1604991 128.5200424 189.5548952 128.0432020
 128.5207372 189.5539623 126.2782715 126.2582267 190.6379011 126.2774328
 126.2571634 190.6379044 128.0423625 126.4231151 188.1324740 128.0379224
 126.4230361 188.1339952 126.2777225 124.1615586 189.2013983 126.2661832
 124.1617875 189.2008719 128.0516810 122.2107631 188.1763881 127.1580000
 130.8290000 178.4210000 140.4650000 132.2787774 185.5222005 141.8911438
 130.7696515 185.4367848 141.8042115 130.2099757 184.5336163 142.8952000
 128.7112477 184.4780210 142.7283451 128.0921405 183.6112373 143.8013042
 126.5858159 183.7431808 143.7267451 125.9680844 182.9420000 142.5780000
 124.4220000 182.9420000 142.5780000 123.8146962 184.3687263 142.5780000
 124.3125752 185.2952788 141.4654628 123.7578467 186.7087891 141.6880727
 124.2653630 187.6722987 140.6200697 123.7134345 189.0834171 140.8408251
 124.2219850 190.0236350 139.7456482 123.6752930 191.4387717 139.9227523
 124.1878685 192.3561607 138.8248112 123.8985855 182.2921111 143.9250708
 124.2174433 183.1100878 145.1694143 123.6753105 182.4704234 146.4438002
 124.1033195 183.3343543 147.6239314 123.5870424 182.8130436 148.9585243
 124.0749724 183.7268103 150.0822741 123.5855094 183.2480682 151.4394483
 124.0733657 184.1590515 152.5533876 123.8671881 182.0713906 141.4116574
 124.2207005 180.5855280 141.3014780 123.8269989 179.6508091 142.4499994
 122.3189551 179.6661187 142.7049279 121.6444240 179.0162166 141.5144070
 120.1360011 179.0869084 141.5230254 119.6558935 178.3913068 140.2515470
 118.1478128 178.3880083 140.1594067 130.3670000 178.6890000 139.5100000
 130.2900455 178.3183397 139.5176543 130.2075611 177.9864972 141.2575043
 132.5739754 185.9236320 142.8668291 132.7141727 184.5202427 141.8014485
 130.4669720 185.0496836 140.8240912 130.3278237 186.4364455 141.9038742
 130.4732239 184.9268512 143.8822884 130.6384698 183.5247144 142.8159043
 128.4543187 184.0927845 141.7415598 128.2978951 185.4960287 142.7993450
 128.4262658 183.9492563 144.7875970 128.4063866 182.5657500 143.6975358
 126.2967068 184.7989578 143.6815596 126.2736052 183.4013389 144.6938530
 126.2883425 181.8989625 142.6273618 126.2823881 183.3444737 141.6102644
 124.0612357 184.8376140 143.5204736 122.7263203 184.2546983 142.5242458
 123.9920002 184.9427926 140.4794638 125.4057742 185.3515952 141.4569588
 124.0619731 187.0685757 142.6791851 122.6615120 186.6792478 141.6756421
 123.9709548 187.3107877 139.6302164 125.3615354 187.7027619 140.6445471
 124.0190479 189.4521915 141.8145017 122.6167292 189.0587877 140.8252742
 123.9255892 189.6368654 138.7643420 125.3180986 190.0482493 139.7673350
 123.9757766 191.8377647 140.8987785 122.5800217 191.4223078 139.8993739
 125.2809208 192.4194951 138.8453196 123.7850697 193.3648999 138.9533585
 123.8848333 191.9918719 137.8373785 124.3530542 181.3009619 144.0061353
 122.8106585 182.1815741 143.8157896 123.7636181 184.1020562 145.1131875
 125.2988946 183.2407973 145.2652741 124.0607371 181.4480534 146.5570741
 122.5804861 182.4060040 146.3965076 123.7405385 184.3593520 147.4744737
 125.1995863 183.3854758 147.6541921 123.9486746 181.7888178 149.1248960
 122.4939449 182.7811222 148.9488867 123.7201845 184.7502743 149.9036315
 125.1704190 183.7628191 150.0791142 123.9397463 182.2271405 151.6271609
 122.4880939 183.2163802 151.4536289 125.1683060 184.1916533 152.5801465
 123.7199238 183.7982630 153.5242081 123.7037895 185.1804462 152.4135654
 124.2800187 182.5022503 140.4953470 122.7819227 182.2232412 141.3949758
 125.2587693 180.4389571 140.9992213 123.7330396 180.2329919 140.3868611
 124.3920450 179.8437473 143.3648266 124.1297210 178.6281249 142.1814306
 121.9445027 180.6894618 142.8499114 122.0878803 179.1206479 143.6264419
 121.9743367 177.9711193 141.4587990 121.9639557 179.4947440 140.5867341
 119.8112828 180.1370481 141.5253643 119.7324417 178.6079961 142.4177257
 120.0271578 177.3596438 140.2343392 120.0727045 178.8921868 139.3687974
 117.7138941 177.8901213 141.0305216 117.8331443 177.8560585 139.2585859
 117.7661053 179.4123538 140.1113582 132.2980000 175.6220000 134.8990000
 121.8830000 187.5860000 144.1960000 128.1508435 190.0892258 145.1348018
 126.6216208 190.0983423 145.1348476 126.0569748 188.6763454 145.1339514
 124.5287844 188.6829019 145.1333803 123.9572430 187.2830000 145.1330000
 122.6030000 187.2830000 145.1330000 124.6074269 186.2507992 145.1324242
 121.6960000 188.1870000 142.3380000 121.3249627 188.1866082 143.4714083
 121.3219482 187.5706945 145.1354991 128.5200424 189.5548952 146.0182020
 128.5207372 189.5539623 144.2532715 126.2582267 190.6379011 144.2524328
 126.2571634 190.6379044 146.0173625 126.4231151 188.1324740 146.0129224
 126.4230361 188.1339952 144.2527225 124.1615586 189.2013983 144.2411832
 124.1617875 189.2008719 146.0266810 122.2107631 188.1763881 145.1330000
 130.8290000 178.4210000 158.4400000 132.2787774 185.5222005 159.8661438
 130.7696515 185.4367848 159.7792115 130.2099757 184.5336163 160.8702000
 128.7112477 184.4780210 160.7033451 128.0921405 183.6112373 161.7763042
 126.5858159 183.7431808 161.7017451 125.9680844 182.9420000 160.5530000
 124.4220000 182.9420000 160.5530000 123.8146962 184.3687263 160.5530000
 124.3125752 185.2952788 159.4404628 123.7578467 186.7087891 159.6630727
 124.2653630 187.6722987 158.5950697 123.7134345 189.0834171 158.8158251
 124.2219850 190.0236350 157.7206482 123.6752930 191.4387717 157.8977523
 124.1878685 192.3561607 156.7998112 123.8985855 182.2921111 161.9000708
 124.2174433 183.1100878 163.1444143 123.6753105 182.4704234 164.4188002
 124.1033195 183.3343543 165.5989314 123.5870424 182.8130436 166.9335243
 124.0749724 183.7268103 168.0572741 123.5855094 183.2480682 169.4144483
 124.0733657 184.1590515 170.5283876 123.8671881 182.0713906 159.3866574
 124.2207005 180.5855280 159.2764780 123.8269989 179.6508091 160.4249994
 122.3189551 179.6661187 160.6799279 121.6444240 179.0162166 159.4894070
 120.1360011 179.0869084 159.4980254 119.6558935 178.3913068 158.2265470
 118.1478128 178.3880083 158.1344067 130.3670000 178.6890000 157.4850000
 130.2900455 178.3183397 157.4926543 130.2075611 177.9864972 159.2325043
 132.5739754 185.9236320 160.8418291 132.7141727 184.5202427 159.7764485
 130.4669720 185.0496836 158.7990912 130.3278237 186.4364455 159.8788742
 130.4732239 184.9268512 161.8572884 130.6384698 183.5247144 160.7909043
 128.4543187 184.0927845 159.7165598 128.2978951 185.4960287 160.7743450
 128.4262658 183.9492563 162.7625970 128.4063866 182.5657500 161.6725358
 126.2967068 184.7989578 161.6565596 126.2736052 183.4013389 162.6688530
 126.2883425 181.8989625 160.6023618 126.2823881 183.3444737 159.5852644
 124.0612357 184.8376140 161.4954736 122.7263203 184.2546983 160.4992458
 123.9920002 184.9427926 158.4544638 125.4057742 185.3515952 159.4319588
 124.0619731 187.0685757 160.6541851 122.6615120 186.6792478 159.6506421
 123.9709548 187.3107877 157.6052164 125.3615354 187.7027619 158.6195471
 124.0190479 189.4521915 159.7895017 122.6167292 189.0587877 158.8002742
 123.9255892 189.6368654 156.7393420 125.3180986 190.0482493 157.7423350
 123.9757766 191.8377647 158.8737785 122.5800217 191.4223078 157.8743739
 125.2809208 192.4194951 156.8203196 123.7850697 193.3648999 156.9283585
 123.8848333 191.9918719 155.8123785 124.3530542 181.3009619 161.9811353
 122.8106585 182.1815741 161.7907896 123.7636181 184.1020562 163.0881875
 125.2988946 183.2407973 163.2402741 124.0607371 181.4480534 164.5320741
 122.5804861 182.4060040 164.3715076 123.7405385 184.3593520 165.4494737
 125.1995863 183.3854758 165.6291921 123.9486746 181.7888178 167.0998960
 122.4939449 182.7811222 166.9238867 123.7201845 184.7502743 167.8786315
 125.1704190 183.7628191 168.0541142 123.9397463 182.2271405 169.6021609
 122.4880939 183.2163802 169.4286289 125.1683060 184.1916533 170.5551465
 123.7199238 183.7982630 171.4992081 123.7037895 185.1804462 170.3885654
 124.2800187 182.5022503 158.4703470 122.7819227 182.2232412 159.3699758
 125.2587693 180.4389571 158.9742213 123.7330396 180.2329919 158.3618611
 124.3920450 179.8437473 161.3398266 124.1297210 178.6281249 160.1564306
 121.9445027 180.6894618 160.8249114 122.0878803 179.1206479 161.6014419
 121.9743367 177.9711193 159.4337990 121.9639557 179.4947440 158.5617341
 119.8112828 180.1370481 159.5003643 119.7324417 178.6079961 160.3927257
 120.0271578 177.3596438 158.2093392 120.0727045 178.8921868 157.3437974
 117.7138941 177.8901213 159.0055216 117.8331443 177.8560585 157.2335859
 117.7661053 179.4123538 158.0863582 132.2980000 175.6220000 152.8740000
 121.8830000 187.5860000 162.1710000 128.1508435 190.0892258 163.1098018
 126.6216208 190.0983423 163.1098476 126.0569748 188.6763454 163.1089514
 124.5287844 188.6829019 163.1083803 123.9572430 187.2830000 163.1080000
 122.6030000 187.2830000 163.1080000 124.6074269 186.2507992 163.1074242
 121.6960000 188.1870000 160.3130000 121.3249627 188.1866082 161.4464083
 121.3219482 187.5706945 163.1104991 128.5200424 189.5548952 163.9932020
 128.5207372 189.5539623 162.2282715 126.2582267 190.6379011 162.2274328
 126.2571634 190.6379044 163.9923625 126.4231151 188.1324740 163.9879224
 126.4230361 188.1339952 162.2277225 124.1615586 189.2013983 162.2161832
 124.1617875 189.2008719 164.0016810 122.2107631 188.1763881 163.1080000
 130.8290000 178.4210000 176.4150000 132.2787774 185.5222005 177.8411438
 130.7696515 185.4367848 177.7542115 130.2099757 184.5336163 178.8452000
 128.7112477 184.4780210 178.6783451 128.0921405 183.6112373 179.7513042
 126.5858159 183.7431808 179.6767451 125.9680844 182.9420000 178.5280000
 124.4220000 182.9420000 178.5280000 123.8146962 184.3687263 178.5280000
 124.3125752 185.2952788 177.4154628 123.7578467 186.7087891 177.6380727
 124.2653630 187.6722987 176.5700697 123.7134345 189.0834171 176.7908251
 124.2219850 190.0236350 175.6956482 123.6752930 191.4387717 175.8727523
 124.1878685 192.3561607 174.7748112 123.8985855 182.2921111 179.8750708
 124.2174433 183.1100878 181.1194143 123.6753105 182.4704234 182.3938002
 124.1033195 183.3343543 183.5739314 123.5870424 182.8130436 184.9085243
 124.0749724 183.7268103 186.0322741 123.5855094 183.2480682 187.3894483
 124.0733657 184.1590515 188.5033876 123.8671881 182.0713906 177.3616574
 124.2207005 180.5855280 177.2514780 123.8269989 179.6508091 178.3999994
 122.3189551 179.6661187 178.6549279 121.6444240 179.0162166 177.4644070
 120.1360011 179.0869084 177.4730254 119.6558935 178.3913068 176.2015470
 118.1478128 178.3880083 176.1094067 130.3670000 178.6890000 175.4600000
 130.2900455 178.3183397 175.4676543 130.2075611 177.9864972 177.2075043
 132.5739754 185.9236320 178.8168291 132.7141727 184.5202427 177.7514485
 130.4669720 185.0496836 176.7740912 130.3278237 186.4364455 177.8538742
 130.4732239 184.9268512 179.8322884 130.6384698 183.5247144 178.7659043
 128.4543187 184.0927845 177.6915598 128.2978951 185.4960287 178.7493450
 128.4262658 183.9492563 180.7375970 128.4063866 182.5657500 179.6475358
 126.2967068 184.7989578 179.6315596 126.2736052 183.4013389 180.6438530
 126.2883425 181.8989625 178.5773618 126.2823881 183.3444737 177.5602644
 124.0612357 184.8376140 179.4704736 122.7263203 184.2546983 178.4742458
 123.9920002 184.9427926 176.4294638 125.4057742 185.3515952 177.4069588
 124.0619731 187.0685757 178.6291851 122.6615120 186.6792478 177.6256421
 123.9709548 187.3107877 175.5802164 125.3615354 187.7027619 176.5945471
 124.0190479 189.4521915 177.7645017 122.6167292 189.0587877 176.7752742
 123.9255892 189.6368654 174.7143420 125.3180986 190.0482493 175.7173350
 123.9757766 191.8377647 176.8487785 122.5800217 191.4223078 175.8493739
 125.2809208 192.4194951 174.7953196 123.7850697 193.3648999 174.9033585
 123.8848333 191.9918719 173.7873785 124.3530542 181.3009619 179.9561353
 122.8106585 182.1815741 179.7657896 123.7636181 184.1020562 181.0631875
 125.2988946 183.2407973 181.2152741 124.0607371 181.4480534 182.5070741
 122.5804861 182.4060040 182.3465076 123.7405385 184.3593520 183.4244737
 125.1995863 183.3854758 183.6041921 123.9486746 181.7888178 185.0748960
 122.4939449 182.7811222 184.8988867 123.7201845 184.7502743 185.8536315
 125.1704190 183.7628191 186.0291142 123.9397463 182.2271405 187.5771609
 122.4880939 183.2163802 187.4036289 125.1683060 184.1916533 188.5301465
 123.7199238 183.7982630 189.4742081 123.7037895 185.1804462 188.3635654
 124.2800187 182.5022503 176.4453470 122.7819227 182.2232412 177.3449758
 125.2587693 180.4389571 176.9492213 123.7330396 180.2329919 176.3368611
 124.3920450 179.8437473 179.3148266 124.1297210 178.6281249 178.1314306
 121.9445027 180.6894618 178.7999114 122.0878803 179.1206479 179.5764419
 121.9743367 177.9711193 177.4087990 121.9639557 179.4947440 176.5367341
 119.8112828 180.1370481 177.4753643 119.7324417 178.6079961 178.3677257
 120.0271578 177.3596438 176.1843392 120.0727045 178.8921868 175.3187974
 117.7138941 177.8901213 176.9805216 117.8331443 177.8560585 175.2085859
 117.7661053 179.4123538 176.0613582 132.2980000 175.6220000 170.8490000
 121.8830000 187.5860000 180.1460000 128.1508435 190.0892258 181.0848018
 126.6216208 190.0983423 181.0848476 126.0569748 188.6763454 181.0839514
 124.5287844 188.6829019 181.0833803 123.9572430 187.2830000 181.0830000
 122.6030000 187.2830000 181.0830000 124.6074269 186.2507992 181.0824242
 121.6960000 188.1870000 178.2880000 121.3249627 188.1866082 179.4214083
 121.3219482 187.5706945 181.0854991 128.5200424 189.5548952 181.9682020
 128.5207372 189.5539623 180.2032715 126.2582267 190.6379011 180.2024328
 126.2571634 190.6379044 181.9673625 126.4231151 188.1324740 181.9629224
 126.4230361 188.1339952 180.2027225 124.1615586 189.2013983 180.1911832
 124.1617875 189.2008719 181.9766810 122.2107631 188.1763881 181.0830000
 150.9790000  66.7990000  68.5660000 152.4287774  73.9002005  69.9921438
 150.9196515  73.8147848  69.9052115 150.3599757  72.9116163  70.9962000
 148.8612477  72.8560210  70.8293451 148.2421405  71.9892373  71.9023042
 146.7358159  72.1211808  71.8277451 146.1180844  71.3200000  70.6790000
 144.5720000  71.3200000  70.6790000 143.9646962  72.7467263  70.6790000
 144.4625752  73.6732788  69.5664628 143.9078467  75.0867891  69.7890727
 144.4153630  76.0502987  68.7210697 143.8634345  77.4614171  68.9418251
 144.3719850  78.4016350  67.8466482 143.8252930  79.8167717  68.0237523
 144.3378685  80.7341607  66.9258112 144.0485855  70.6701111  72.0260708
 144.3674433  71.4880878  73.2704143 143.8253105  70.8484234  74.5448002
 144.2533195  71.7123543  75.7249314 143.7370424  71.1910436  77.0595243
 144.2249724  72.1048103  78.1832741 143.7355094  71.6260682  79.5404483
 144.2233657  72.5370515  80.6543876 144.0171881  70.4493906  69.5126574
 144.3707005  68.9635280  69.4024780 143.9769989  68.0288091  70.5509994
 142.4689551  68.0441187  70.8059279 141.7944240  67.3942166  69.6154070
 140.2860011  67.4649084  69.6240254 139.8058935  66.7693068  68.3525470
 138.2978128  66.7660083  68.2604067 150.5170000  67.0670000  67.6110000
 150.4400455  66.6963397  67.6186543 150.3575611  66.3644972  69.3585043
 152.7239754  74.3016320  70.9678291 152.8641727  72.8982427  69.9024485
 150.6169720  73.4276836  68.9250912 150.4778237  74.8144455  70.0048742
 150.6232239  73.3048512  71.9832884 150.7884698  71.9027144  70.9169043
 148.6043187  72.4707845  69.8425598 148.4478951  73.8740287  70.9003450
 148.5762658  72.3272563  72.8885970 148.5563866  70.9437500  71.7985358
 146.4467068  73.1769578  71.7825596 146.4236052  71.7793389  72.7948530
 146.4383425  70.2769625  70.7283618 146.4323881  71.7224737  69.7112644
 144.2112357  73.2156140  71.6214736 142.8763203  72.6326983  70.6252458
 144.1420002  73.3207926  68.5804638 145.5557742  73.7295952  69.5579588
 144.2119731  75.4465757  70.7801851 142.8115120  75.0572478  69.7766421
 144.1209548  75.6887877  67.7312164 145.5115354  76.0807619  68.7455471
 144.1690479  77.8301915  69.9155017 142.7667292  77.4367877  68.9262742
 144.0755892  78.0148654  66.8653420 145.4680986  78.4262493  67.8683350
 144.1257766  80.2157647  68.9997785 142.7300217  79.8003078  68.0003739
 145.4309208  80.7974951  66.9463196 143.9350697  81.7428999  67.0543585
 144.0348333  80.3698719  65.9383785 144.5030542  69.6789619  72.1071353
 142.9606585  70.5595741  71.9167896 143.9136181  72.4800562  73.2141875
 145.4488946  71.6187973  73.3662741 144.2107371  69.8260534  74.6580741
 142.7304861  70.7840040  74.4975076 143.8905385  72.7373520  75.5754737
 145.3495863  71.7634758  75.7551921 144.0986746  70.1668178  77.2258960
 142.6439449  71.1591222  77.0498867 143.8701845  73.1282743  78.0046315
 145.3204190  72.1408191  78.1801142 144.0897463  70.6051405  79.7281609
 142.6380939  71.5943802  79.5546289 145.3183060  72.5696533  80.6811465
 143.8699238  72.1762630  81.6252081 143.8537895  73.5584462  80.5145654
 144.4300187  70.8802503  68.5963470 142.9319227  70.6012412  69.4959758
 145.4087693  68.8169571  69.1002213 143.8830396  68.6109919  68.4878611
 144.5420450  68.2217473  71.4658266 144.2797210  67.0061249  70.2824306
 142.0945027  69.0674618  70.9509114 142.2378803  67.4986479  71.7274419
 142.1243367  66.3491193  69.5597990 142.1139557  67.8727440  68.6877341
 139.9612828  68.5150481  69.6263643 139.8824417  66.9859961  70.5187257
 140.1771578  65.7376438  68.3353392 140.2227045  67.2701868  67.4697974
 137.8638941  66.2681213  69.1315216 137.9831443  66.2340585  67.3595859
 137.9161053  67.7903538  68.2123582 152.4480000  64.0000000  63.0000000
 142.0330000  75.9640000  72.2970000 148.3008435  78.4672258  73.2358018
 146.7716208  78.4763423  73.2358476 146.2069748  77.0543454  73.2349514
 144.6787844  77.0609019  73.2343803 144.1072430  75.6610000  73.2340000
 142.7530000  75.6610000  73.2340000 144.7574269  74.6287992  73.2334242
 141.8460000  76.5650000  70.4390000 141.4749627  76.5646082  71.5724083
 141.4719482  75.9486945  73.2364991 148.6700424  77.9328952  74.1192020
 148.6707372  77.9319623  72.3542715 146.4082267  79.0159011  72.3534328
 146.4071634  79.0159044  74.1183625 146.5731151  76.5104740  74.1139224
 146.5730361  76.5119952  72.3537225 144.3115586  77.5793983  72.3421832
 144.3117875  77.5788719  74.1276810 142.3607631  76.5543881  73.2340000
 150.9790000  66.7990000  86.5410000 152.4287774  73.9002005  87.9671438
 150.9196515  73.8147848  87.8802115 150.3599757  72.9116163  88.9712000
 148.8612477  72.8560210  88.8043451 148.2421405  71.9892373  89.8773042
 146.7358159  72.1211808  89.8027451 146.1180844  71.3200000  88.6540000
 144.5720000  71.3200000  88.6540000 143.9646962  72.7467263  88.6540000
 144.4625752  73.6732788  87.5414628 143.9078467  75.0867891  87.7640727
 144.4153630  76.0502987  86.6960697 143.8634345  77.4614171  86.9168251
 144.3719850  78.4016350  85.8216482 143.8252930  79.8167717  85.9987523
 144.3378685  80.7341607  84.9008112 144.0485855  70.6701111  90.0010708
 144.3674433  71.4880878  91.2454143 143.8253105  70.8484234  92.5198002
 144.2533195  71.7123543  93.6999314 143.7370424  71.1910436  95.0345243
 144.2249724  72.1048103  96.1582741 143.7355094  71.6260682  97.5154483
 144.2233657  72.5370515  98.6293876 144.0171881  70.4493906  87.4876574
 144.3707005  68.9635280  87.3774780 143.9769989  68.0288091  88.5259994
 142.4689551  68.0441187  88.7809279 141.7944240  67.3942166  87.5904070
 140.2860011  67.4649084  87.5990254 139.8058935  66.7693068  86.3275470
 138.2978128  66.7660083  86.2354067 150.5170000  67.0670000  85.5860000
 150.4400455  66.6963397  85.5936543 150.3575611  66.3644972  87.3335043
 152.7239754  74.3016320  88.9428291 152.8641727  72.8982427  87.8774485
 150.6169720  73.4276836  86.9000912 150.4778237  74.8144455  87.9798742
 150.6232239  73.3048512  89.9582884 150.7884698  71.9027144  88.8919043
 148.6043187  72.4707845  87.8175598 148.4478951  73.8740287  88.8753450
 148.5762658  72.3272563  90.8635970 148.5563866  70.9437500  89.7735358
 146.4467068  73.1769578  89.7575596 146.4236052  71.7793389  90.7698530
 146.4383425  70.2769625  88.7033618 146.4323881  71.7224737  87.6862644
 144.2112357  73.2156140  89.5964736 142.8763203  72.6326983  88.6002458
 144.1420002  73.3207926  86.5554638 145.5557742  73.7295952  87.5329588
 144.2119731  75.4465757  88.7551851 142.8115120  75.0572478  87.7516421
 144.1209548  75.6887877  85.7062164 145.5115354  76.0807619  86.7205471
 144.1690479  77.8301915  87.8905017 142.7667292  77.4367877  86.9012742
 144.0755892  78.0148654  84.8403420 145.4680986  78.4262493  85.8433350
 144.1257766  80.2157647  86.9747785 142.7300217  79.8003078  85.9753739
 145.4309208  80.7974951  84.9213196 143.9350697  81.7428999  85.0293585
 144.0348333  80.3698719  83.9133785 144.5030542  69.6789619  90.0821353
 142.9606585  70.5595741  89.8917896 143.9136181  72.4800562  91.1891875
 145.4488946  71.6187973  91.3412741 144.2107371  69.8260534  92.6330741
 142.7304861  70.7840040  92.4725076 143.8905385  72.7373520  93.5504737
 145.3495863  71.7634758  93.7301921 144.0986746  70.1668178  95.2008960
 142.6439449  71.1591222  95.0248867 143.8701845  73.1282743  95.9796315
 145.3204190  72.1408191  96.1551142 144.0897463  70.6051405  97.7031609
 142.6380939  71.5943802  97.5296289 145.3183060  72.5696533  98.6561465
 143.8699238  72.1762630  99.6002081 143.8537895  73.5584462  98.4895654
 144.4300187  70.8802503  86.5713470 142.9319227  70.6012412  87.4709758
 145.4087693  68.8169571  87.0752213 143.8830396  68.6109919  86.4628611
 144.5420450  68.2217473  89.4408266 144.2797210  67.0061249  88.2574306
 142.0945027  69.0674618  88.9259114 142.2378803  67.4986479  89.7024419
 142.1243367  66.3491193  87.5347990 142.1139557  67.8727440  86.6627341
 139.9612828  68.5150481  87.6013643 139.8824417  66.9859961  88.4937257
 140.1771578  65.7376438  86.3103392 140.2227045  67.2701868  85.4447974
 137.8638941  66.2681213  87.1065216 137.9831443  66.2340585  85.3345859
 137.9161053  67.7903538  86.1873582 152.4480000  64.0000000  80.9750000
 142.0330000  75.9640000  90.2720000 148.3008435  78.4672258  91.2108018
 146.7716208  78.4763423  91.2108476 146.2069748  77.0543454  91.2099514
 144.6787844  77.0609019  91.2093803 144.1072430  75.6610000  91.2090000
 142.7530000  75.6610000  91.2090000 144.7574269  74.6287992  91.2084242
 141.8460000  76.5650000  88.4140000 141.4749627  76.5646082  89.5474083
 141.4719482  75.9486945  91.2114991 148.6700424  77.9328952  92.0942020
 148.6707372  77.9319623  90.3292715 146.4082267  79.0159011  90.3284328
 146.4071634  79.0159044  92.0933625 146.5731151  76.5104740  92.0889224
 146.5730361  76.5119952  90.3287225 144.3115586  77.5793983  90.3171832
 144.3117875  77.5788719  92.1026810 142.3607631  76.5543881  91.2090000
 150.9790000  66.7990000 104.5160000 152.4287774  73.9002005 105.9421438
 150.9196515  73.8147848 105.8552115 150.3599757  72.9116163 106.9462000
 148.8612477  72.8560210 106.7793451 148.2421405  71.9892373 107.8523042
 146.7358159  72.1211808 107.7777451 146.1180844  71.3200000 106.6290000
 144.5720000  71.3200000 106.6290000 143.9646962  72.7467263 106.6290000
 144.4625752  73.6732788 105.5164628 143.9078467  75.0867891 105.7390727
 144.4153630  76.0502987 104.6710697 143.8634345  77.4614171 104.8918251
 144.3719850  78.4016350 103.7966482 143.8252930  79.8167717 103.9737523
 144.3378685  80.7341607 102.8758112 144.0485855  70.6701111 107.9760708
 144.3674433  71.4880878 109.2204143 143.8253105  70.8484234 110.4948002
 144.2533195  71.7123543 111.6749314 143.7370424  71.1910436 113.0095243
 144.2249724  72.1048103 114.1332741 143.7355094  71.6260682 115.4904483
 144.2233657  72.5370515 116.6043876 144.0171881  70.4493906 105.4626574
 144.3707005  68.9635280 105.3524780 143.9769989  68.0288091 106.5009994
 142.4689551  68.0441187 106.7559279 141.7944240  67.3942166 105.5654070
 140.2860011  67.4649084 105.5740254 139.8058935  66.7693068 104.3025470
 138.2978128  66.7660083 104.2104067 150.5170000  67.0670000 103.5610000
 150.4400455  66.6963397 103.5686543 150.3575611  66.3644972 105.3085043
 152.7239754  74.3016320 106.9178291 152.8641727  72.8982427 105.8524485
 150.6169720  73.4276836 104.8750912 150.4778237  74.8144455 105.9548742
 150.6232239  73.3048512 107.9332884 150.7884698  71.9027144 106.8669043
 148.6043187  72.4707845 105.7925598 148.4478951  73.8740287 106.8503450
 148.5762658  72.3272563 108.8385970 148.5563866  70.9437500 107.7485358
 146.4467068  73.1769578 107.7325596 146.4236052  71.7793389 108.7448530
 146.4383425  70.2769625 106.6783618 146.4323881  71.7224737 105.6612644
 144.2112357  73.2156140 107.5714736 142.8763203  72.6326983 106.5752458
 144.1420002  73.3207926 104.5304638 145.5557742  73.7295952 105.5079588
 144.2119731  75.4465757 106.7301851 142.8115120  75.0572478 105.7266421
 144.1209548  75.6887877 103.6812164 145.5115354  76.0807619 104.6955471
 144.1690479  77.8301915 105.8655017 142.7667292  77.4367877 104.8762742
 144.0755892  78.0148654 102.8153420 145.4680986  78.4262493 103.8183350
 144.1257766  80.2157647 104.9497785 142.7300217  79.8003078 103.9503739
 145.4309208  80.7974951 102.8963196 143.9350697  81.7428999 103.0043585
 144.0348333  80.3698719 101.8883785 144.5030542  69.6789619 108.0571353
 142.9606585  70.5595741 107.8667896 143.9136181  72.4800562 109.1641875
 145.4488946  71.6187973 109.3162741 144.2107371  69.8260534 110.6080741
 142.7304861  70.7840040 110.4475076 143.8905385  72.7373520 111.5254737
 145.3495863  71.7634758 111.7051921 144.0986746  70.1668178 113.1758960
 142.6439449  71.1591222 112.9998867 143.8701845  73.1282743 113.9546315
 145.3204190  72.1408191 114.1301142 144.0897463  70.6051405 115.6781609
 142.6380939  71.5943802 115.5046289 145.3183060  72.5696533 116.6311465
 143.8699238  72.1762630 117.5752081 143.8537895  73.5584462 116.4645654
 144.4300187  70.8802503 104.5463470 142.9319227  70.6012412 105.4459758
 145.4087693  68.8169571 105.0502213 143.8830396  68.6109919 104.4378611
 144.5420450  68.2217473 107.4158266 144.2797210  67.0061249 106.2324306
 142.0945027  69.0674618 106.9009114 142.2378803  67.4986479 107.6774419
 142.1243367  66.3491193 105.5097990 142.1139557  67.8727440 104.6377341
 139.9612828  68.5150481 105.5763643 139.8824417  66.9859961 106.4687257
 140.1771578  65.7376438 104.2853392 140.2227045  67.2701868 103.4197974
 137.8638941  66.2681213 105.0815216 137.9831443  66.2340585 103.3095859
 137.9161053  67.7903538 104.1623582 152.4480000  64.0000000  98.9500000
 142.0330000  75.9640000 108.2470000 148.3008435  78.4672258 109.1858018
 146.7716208  78.4763423 109.1858476 146.2069748  77.0543454 109.1849514
 144.6787844  77.0609019 109.1843803 144.1072430  75.6610000 109.1840000
 142.7530000  75.6610000 109.1840000 144.7574269  74.6287992 109.1834242
 141.8460000  76.5650000 106.3890000 141.4749627  76.5646082 107.5224083
 141.4719482  75.9486945 109.1864991 148.6700424  77.9328952 110.0692020
 148.6707372  77.9319623 108.3042715 146.4082267  79.0159011 108.3034328
 146.4071634  79.0159044 110.0683625 146.5731151  76.5104740 110.0639224
 146.5730361  76.5119952 108.3037225 144.3115586  77.5793983 108.2921832
 144.3117875  77.5788719 110.0776810 142.3607631  76.5543881 109.1840000
 150.9790000  66.7990000 122.4900000 152.4287774  73.9002005 123.9161438
 150.9196515  73.8147848 123.8292115 150.3599757  72.9116163 124.9202000
 148.8612477  72.8560210 124.7533451 148.2421405  71.9892373 125.8263042
 146.7358159  72.1211808 125.7517451 146.1180844  71.3200000 124.6030000
 144.5720000  71.3200000 124.6030000 143.9646962  72.7467263 124.6030000
 144.4625752  73.6732788 123.4904628 143.9078467  75.0867891 123.7130727
 144.4153630  76.0502987 122.6450697 143.8634345  77.4614171 122.8658251
 144.3719850  78.4016350 121.7706482 143.8252930  79.8167717 121.9477523
 144.3378685  80.7341607 120.8498112 144.0485855  70.6701111 125.9500708
 144.3674433  71.4880878 127.1944143 143.8253105  70.8484234 128.4688002
 144.2533195  71.7123543 129.6489314 143.7370424  71.1910436 130.9835243
 144.2249724  72.1048103 132.1072741 143.7355094  71.6260682 133.4644483
 144.2233657  72.5370515 134.5783876 144.0171881  70.4493906 123.4366574
 144.3707005  68.9635280 123.3264780 143.9769989  68.0288091 124.4749994
 142.4689551  68.0441187 124.7299279 141.7944240  67.3942166 123.5394070
 140.2860011  67.4649084 123.5480254 139.8058935  66.7693068 122.2765470
 138.2978128  66.7660083 122.1844067 150.5170000  67.0670000 121.5350000
 150.4400455  66.6963397 121.5426543 150.3575611  66.3644972 123.2825043
 152.7239754  74.3016320 124.8918291 152.8641727  72.8982427 123.8264485
 150.6169720  73.4276836 122.8490912 150.4778237  74.8144455 123.9288742
 150.6232239  73.3048512 125.9072884 150.7884698  71.9027144 124.8409043
 148.6043187  72.4707845 123.7665598 148.4478951  73.8740287 124.8243450
 148.5762658  72.3272563 126.8125970 148.5563866  70.9437500 125.7225358
 146.4467068  73.1769578 125.7065596 146.4236052  71.7793389 126.7188530
 146.4383425  70.2769625 124.6523618 146.4323881  71.7224737 123.6352644
 144.2112357  73.2156140 125.5454736 142.8763203  72.6326983 124.5492458
 144.1420002  73.3207926 122.5044638 145.5557742  73.7295952 123.4819588
 144.2119731  75.4465757 124.7041851 142.8115120  75.0572478 123.7006421
 144.1209548  75.6887877 121.6552164 145.5115354  76.0807619 122.6695471
 144.1690479  77.8301915 123.8395017 142.7667292  77.4367877 122.8502742
 144.0755892  78.0148654 120.7893420 145.4680986  78.4262493 121.7923350
 144.1257766  80.2157647 122.9237785 142.7300217  79.8003078 121.9243739
 145.4309208  80.7974951 120.8703196 143.9350697  81.7428999 120.9783585
 144.0348333  80.3698719 119.8623785 144.5030542  69.6789619 126.0311353
 142.9606585  70.5595741 125.8407896 143.9136181  72.4800562 127.1381875
 145.4488946  71.6187973 127.2902741 144.2107371  69.8260534 128.5820741
 142.7304861  70.7840040 128.4215076 143.8905385  72.7373520 129.4994737
 145.3495863  71.7634758 129.6791921 144.0986746  70.1668178 131.1498960
 142.6439449  71.1591222 130.9738867 143.8701845  73.1282743 131.9286315
 145.3204190  72.1408191 132.1041142 144.0897463  70.6051405 133.6521609
 142.6380939  71.5943802 133.4786289 145.3183060  72.5696533 134.6051465
 143.8699238  72.1762630 135.5492081 143.8537895  73.5584462 134.4385654
 144.4300187  70.8802503 122.5203470 142.9319227  70.6012412 123.4199758
 145.4087693  68.8169571 123.0242213 143.8830396  68.6109919 122.4118611
 144.5420450  68.2217473 125.3898266 144.2797210  67.0061249 124.2064306
 142.0945027  69.0674618 124.8749114 142.2378803  67.4986479 125.6514419
 142.1243367  66.3491193 123.4837990 142.1139557  67.8727440 122.6117341
 139.9612828  68.5150481 123.5503643 139.8824417  66.9859961 124.4427257
 140.1771578  65.7376438 122.2593392 140.2227045  67.2701868 121.3937974
 137.8638941  66.2681213 123.0555216 137.9831443  66.2340585 121.2835859
 137.9161053  67.7903538 122.1363582 152.4480000  64.0000000 116.9240000
 142.0330000  75.9640000 126.2210000 148.3008435  78.4672258 127.1598018
 146.7716208  78.4763423 127.1598476 146.2069748  77.0543454 127.1589514
 144.6787844  77.0609019 127.1583803 144.1072430  75.6610000 127.1580000
 142.7530000  75.6610000 127.1580000 144.7574269  74.6287992 127.1574242
 141.8460000  76.5650000 124.3630000 141.4749627  76.5646082 125.4964083
 141.4719482  75.9486945 127.1604991 148.6700424  77.9328952 128.0432020
 148.6707372  77.9319623 126.2782715 146.4082267  79.0159011 126.2774328
 146.4071634  79.0159044 128.0423625 146.5731151  76.5104740 128.0379224
 146.5730361  76.5119952 126.2777225 144.3115586  77.5793983 126.2661832
 144.3117875  77.5788719 128.0516810 142.3607631  76.5543881 127.1580000
 150.9790000  66.7990000 140.4650000 152.4287774  73.9002005 141.8911438
 150.9196515  73.8147848 141.8042115 150.3599757  72.9116163 142.8952000
 148.8612477  72.8560210 142.7283451 148.2421405  71.9892373 143.8013042
 146.7358159  72.1211808 143.7267451 146.1180844  71.3200000 142.5780000
 144.5720000  71.3200000 142.5780000 143.9646962  72.7467263 142.5780000
 144.4625752  73.6732788 141.4654628 143.9078467  75.0867891 141.6880727
 144.4153630  76.0502987 140.6200697 143.8634345  77.4614171 140.8408251
 144.3719850  78.4016350 139.7456482 143.8252930  79.8167717 139.9227523
 144.3378685  80.7341607 138.8248112 144.0485855  70.6701111 143.9250708
 144.3674433  71.4880878 145.1694143 143.8253105  70.8484234 146.4438002
 144.2533195  71.7123543 147.6239314 143.7370424  71.1910436 148.9585243
 144.2249724  72.1048103 150.0822741 143.7355094  71.6260682 151.4394483
 144.2233657  72.5370515 152.5533876 144.0171881  70.4493906 141.4116574
 144.3707005  68.9635280 141.3014780 143.9769989  68.0288091 142.4499994
 142.4689551  68.0441187 142.7049279 141.7944240  67.3942166 141.5144070
 140.2860011  67.4649084 141.5230254 139.8058935  66.7693068 140.2515470
 138.2978128  66.7660083 140.1594067 150.5170000  67.0670000 139.5100000
 150.4400455  66.6963397 139.5176543 150.3575611  66.3644972 141.2575043
 152.7239754  74.3016320 142.8668291 152.8641727  72.8982427 141.8014485
 150.6169720  73.4276836 140.8240912 150.4778237  74.8144455 141.9038742
 150.6232239  73.3048512 143.8822884 150.7884698  71.9027144 142.8159043
 148.6043187  72.4707845 141.7415598 148.4478951  73.8740287 142.7993450
 148.5762658  72.3272563 144.7875970 148.5563866  70.9437500 143.6975358
 146.4467068  73.1769578 143.6815596 146.4236052  71.7793389 144.6938530
 146.4383425  70.2769625 142.6273618 146.4323881  71.7224737 141.6102644
 144.2112357  73.2156140 143.5204736 142.8763203  72.6326983 142.5242458
 144.1420002  73.3207926 140.4794638 145.5557742  73.7295952 141.4569588
 144.2119731  75.4465757 142.6791851 142.8115120  75.0572478 141.6756421
 144.1209548  75.6887877 139.6302164 145.5115354  76.0807619 140.6445471
 144.1690479  77.8301915 141.8145017 142.7667292  77.4367877 140.8252742
 144.0755892  78.0148654 138.7643420 145.4680986  78.4262493 139.7673350
 144.1257766  80.2157647 140.8987785 142.7300217  79.8003078 139.8993739
 145.4309208  80.7974951 138.8453196 143.9350697  81.7428999 138.9533585
 144.0348333  80.3698719 137.8373785 144.5030542  69.6789619 144.0061353
 142.9606585  70.5595741 143.8157896 143.9136181  72.4800562 145.1131875
 145.4488946  71.6187973 145.2652741 144.2107371  69.8260534 146.5570741
 142.7304861  70.7840040 146.3965076 143.8905385  72.7373520 147.4744737
 145.3495863  71.7634758 147.6541921 144.0986746  70.1668178 149.1248960
 142.6439449  71.1591222 148.9488867 143.8701845  73.1282743 149.9036315
 145.3204190  72.1408191 150.0791142 144.0897463  70.6051405 151.6271609
 142.6380939  71.5943802 151.4536289 145.3183060  72.5696533 152.5801465
 143.8699238  72.1762630 153.5242081 143.8537895  73.5584462 152.4135654
 144.4300187  70.8802503 140.4953470 142.9319227  70.6012412 141.3949758
 145.4087693  68.8169571 140.9992213 143.8830396  68.6109919 140.3868611
 144.5420450  68.2217473 143.3648266 144.2797210  67.0061249 142.1814306
 142.0945027  69.0674618 142.8499114 142.2378803  67.4986479 143.6264419
 142.1243367  66.3491193 141.4587990 142.1139557  67.8727440 140.5867341
 139.9612828  68.5150481 141.5253643 139.8824417  66.9859961 142.4177257
 140.1771578  65.7376438 140.2343392 140.2227045  67.2701868 139.3687974
 137.8638941  66.2681213 141.0305216 137.9831443  66.2340585 139.2585859
 137.9161053  67.7903538 140.1113582 152.4480000  64.0000000 134.8990000
 142.0330000  75.9640000 144.1960000 148.3008435  78.4672258 145.1348018
 146.7716208  78.4763423 145.1348476 146.2069748  77.0543454 145.1339514
 144.6787844  77.0609019 145.1333803 144.1072430  75.6610000 145.1330000
 142.7530000  75.6610000 145.1330000 144.7574269  74.6287992 145.1324242
 141.8460000  76.5650000 142.3380000 141.4749627  76.5646082 143.4714083
 141.4719482  75.9486945 145.1354991 148.6700424  77.9328952 146.0182020
 148.6707372  77.9319623 144.2532715 146.4082267  79.0159011 144.2524328
 146.4071634  79.0159044 146.0173625 146.5731151  76.5104740 146.0129224
 146.5730361  76.5119952 144.2527225 144.3115586  77.5793983 144.2411832
 144.3117875  77.5788719 146.0266810 142.3607631  76.5543881 145.1330000
 150.9790000  66.7990000 158.4400000 152.4287774  73.9002005 159.8661438
 150.9196515  73.8147848 159.7792115 150.3599757  72.9116163 160.8702000
 148.8612477  72.8560210 160.7033451 148.2421405  71.9892373 161.7763042
 146.7358159  72.1211808 161.7017451 146.1180844  71.3200000 160.5530000
 144.5720000  71.3200000 160.5530000 143.9646962  72.7467263 160.5530000
 144.4625752  73.6732788 159.4404628 143.9078467  75.0867891 159.6630727
 144.4153630  76.0502987 158.5950697 143.8634345  77.4614171 158.8158251
 144.3719850  78.4016350 157.7206482 143.8252930  79.8167717 157.8977523
 144.3378685  80.7341607 156.7998112 144.0485855  70.6701111 161.9000708
 144.3674433  71.4880878 163.1444143 143.8253105  70.8484234 164.4188002
 144.2533195  71.7123543 165.5989314 143.7370424  71.1910436 166.9335243
 144.2249724  72.1048103 168.0572741 143.7355094  71.6260682 169.4144483
 144.2233657  72.5370515 170.5283876 144.0171881  70.4493906 159.3866574
 144.3707005  68.9635280 159.2764780 143.9769989  68.0288091 160.4249994
 142.4689551  68.0441187 160.6799279 141.7944240  67.3942166 159.4894070
 140.2860011  67.4649084 159.4980254 139.8058935  66.7693068 158.2265470
 138.2978128  66.7660083 158.1344067 150.5170000  67.0670000 157.4850000
 150.4400455  66.6963397 157.4926543 150.3575611  66.3644972 159.2325043
 152.7239754  74.3016320 160.8418291 152.8641727  72.8982427 159.7764485
 150.6169720  73.4276836 158.7990912 150.4778237  74.8144455 159.8788742
 150.6232239  73.3048512 161.8572884 150.7884698  71.9027144 160.7909043
 148.6043187  72.4707845 159.7165598 148.4478951  73.8740287 160.7743450
 148.5762658  72.3272563 162.7625970 148.5563866  70.9437500 161.6725358
 146.4467068  73.1769578 161.6565596 146.4236052  71.7793389 162.6688530
 146.4383425  70.2769625 160.6023618 146.4323881  71.7224737 159.5852644
 144.2112357  73.2156140 161.4954736 142.8763203  72.6326983 160.4992458
 144.1420002  73.3207926 158.4544638 145.5557742  73.7295952 159.4319588
 144.2119731  75.4465757 160.6541851 142.8115120  75.0572478 159.6506421
 144.1209548  75.6887877 157.6052164 145.5115354  76.0807619 158.6195471
 144.1690479  77.8301915 159.7895017 142.7667292  77.4367877 158.8002742
 144.0755892  78.0148654 156.7393420 145.4680986  78.4262493 157.7423350
 144.1257766  80.2157647 158.8737785 142.7300217  79.8003078 157.8743739
 145.4309208  80.7974951 156.8203196 143.9350697  81.7428999 156.9283585
 144.0348333  80.3698719 155.8123785 144.5030542  69.6789619 161.9811353
 142.9606585  70.5595741 161.7907896 143.9136181  72.4800562 163.0881875
 145.4488946  71.6187973 163.2402741 144.2107371  69.8260534 164.5320741
 142.7304861  70.7840040 164.3715076 143.8905385  72.7373520 165.4494737
 145.3495863  71.7634758 165.6291921 144.0986746  70.1668178 167.0998960
 142.6439449  71.1591222 166.9238867 143.8701845  73.1282743 167.8786315
 145.3204190  72.1408191 168.0541142 144.0897463  70.6051405 169.6021609
 142.6380939  71.5943802 169.4286289 145.3183060  72.5696533 170.5551465
 143.8699238  72.1762630 171.4992081 143.8537895  73.5584462 170.3885654
 144.4300187  70.8802503 158.4703470 142.9319227  70.6012412 159.3699758
 145.4087693  68.8169571 158.9742213 143.8830396  68.6109919 158.3618611
 144.5420450  68.2217473 161.3398266 144.2797210  67.0061249 160.1564306
 142.0945027  69.0674618 160.8249114 142.2378803  67.4986479 161.6014419
 142.1243367  66.3491193 159.4337990 142.1139557  67.8727440 158.5617341
 139.9612828  68.5150481 159.5003643 139.8824417  66.9859961 160.3927257
 140.1771578  65.7376438 158.2093392 140.2227045  67.2701868 157.3437974
 137.8638941  66.2681213 159.0055216 137.9831443  66.2340585 157.2335859
 137.9161053  67.7903538 158.0863582 152.4480000  64.0000000 152.8740000
 142.0330000  75.9640000 162.1710000 148.3008435  78.4672258 163.1098018
 146.7716208  78.4763423 163.1098476 146.2069748  77.0543454 163.1089514
 144.6787844  77.0609019 163.1083803 144.1072430  75.6610000 163.1080000
 142.7530000  75.6610000 163.1080000 144.7574269  74.6287992 163.1074242
 141.8460000  76.5650000 160.3130000 141.4749627  76.5646082 161.4464083
 141.4719482  75.9486945 163.1104991 148.6700424  77.9328952 163.9932020
 148.6707372  77.9319623 162.2282715 146.4082267  79.0159011 162.2274328
 146.4071634  79.0159044 163.9923625 146.5731151  76.5104740 163.9879224
 146.5730361  76.5119952 162.2277225 144.3115586  77.5793983 162.2161832
 144.3117875  77.5788719 164.0016810 142.3607631  76.5543881 163.1080000
 150.9790000  66.7990000 176.4150000 152.4287774  73.9002005 177.8411438
 150.9196515  73.8147848 177.7542115 150.3599757  72.9116163 178.8452000
 148.8612477  72.8560210 178.6783451 148.2421405  71.9892373 179.7513042
 146.7358159  72.1211808 179.6767451 146.1180844  71.3200000 178.5280000
 144.5720000  71.3200000 178.5280000 143.9646962  72.7467263 178.5280000
 144.4625752  73.6732788 177.4154628 143.9078467  75.0867891 177.6380727
 144.4153630  76.0502987 176.5700697 143.8634345  77.4614171 176.7908251
 144.3719850  78.4016350 175.6956482 143.8252930  79.8167717 175.8727523
 144.3378685  80.7341607 174.7748112 144.0485855  70.6701111 179.8750708
 144.3674433  71.4880878 181.1194143 143.8253105  70.8484234 182.3938002
 144.2533195  71.7123543 183.5739314 143.7370424  71.1910436 184.9085243
 144.2249724  72.1048103 186.0322741 143.7355094  71.6260682 187.3894483
 144.2233657  72.5370515 188.5033876 144.0171881  70.4493906 177.3616574
 144.3707005  68.9635280 177.2514780 143.9769989  68.0288091 178.3999994
 142.4689551  68.0441187 178.6549279 141.7944240  67.3942166 177.4644070
 140.2860011  67.4649084 177.4730254 139.8058935  66.7693068 176.2015470
 138.2978128  66.7660083 176.1094067 150.5170000  67.0670000 175.4600000
 150.4400455  66.6963397 175.4676543 150.3575611  66.3644972 177.2075043
 152.7239754  74.3016320 178.8168291 152.8641727  72.8982427 177.7514485
 150.6169720  73.4276836 176.7740912 150.4778237  74.8144455 177.8538742
 150.6232239  73.3048512 179.8322884 150.7884698  71.9027144 178.7659043
 148.6043187  72.4707845 177.6915598 148.4478951  73.8740287 178.7493450
 148.5762658  72.3272563 180.7375970 148.5563866  70.9437500 179.6475358
 146.4467068  73.1769578 179.6315596 146.4236052  71.7793389 180.6438530
 146.4383425  70.2769625 178.5773618 146.4323881  71.7224737 177.5602644
 144.2112357  73.2156140 179.4704736 142.8763203  72.6326983 178.4742458
 144.1420002  73.3207926 176.4294638 145.5557742  73.7295952 177.4069588
 144.2119731  75.4465757 178.6291851 142.8115120  75.0572478 177.6256421
 144.1209548  75.6887877 175.5802164 145.5115354  76.0807619 176.5945471
 144.1690479  77.8301915 177.7645017 142.7667292  77.4367877 176.7752742
 144.0755892  78.0148654 174.7143420 145.4680986  78.4262493 175.7173350
 144.1257766  80.2157647 176.8487785 142.7300217  79.8003078 175.8493739
 145.4309208  80.7974951 174.7953196 143.9350697  81.7428999 174.9033585
 144.0348333  80.3698719 173.7873785 144.5030542  69.6789619 179.9561353
 142.9606585  70.5595741 179.7657896 143.9136181  72.4800562 181.0631875
 145.4488946  71.6187973 181.2152741 144.2107371  69.8260534 182.5070741
 142.7304861  70.7840040 182.3465076 143.8905385  72.7373520 183.4244737
 145.3495863  71.7634758 183.6041921 144.0986746  70.1668178 185.0748960
 142.6439449  71.1591222 184.8988867 143.8701845  73.1282743 185.8536315
 145.3204190  72.1408191 186.0291142 144.0897463  70.6051405 187.5771609
 142.6380939  71.5943802 187.4036289 145.3183060  72.5696533 188.5301465
 143.8699238  72.1762630 189.4742081 143.8537895  73.5584462 188.3635654
 144.4300187  70.8802503 176.4453470 142.9319227  70.6012412 177.3449758
 145.4087693  68.8169571 176.9492213 143.8830396  68.6109919 176.3368611
 144.5420450  68.2217473 179.3148266 144.2797210  67.0061249 178.1314306
 142.0945027  69.0674618 178.7999114 142.2378803  67.4986479 179.5764419
 142.1243367  66.3491193 177.4087990 142.1139557  67.8727440 176.5367341
 139.9612828  68.5150481 177.4753643 139.8824417  66.9859961 178.3677257
 140.1771578  65.7376438 176.1843392 140.2227045  67.2701868 175.3187974
 137.8638941  66.2681213 176.9805216 137.9831443  66.2340585 175.2085859
 137.9161053  67.7903538 176.0613582 152.4480000  64.0000000 170.8490000
 142.0330000  75.9640000 180.1460000 148.3008435  78.4672258 181.0848018
 146.7716208  78.4763423 181.0848476 146.2069748  77.0543454 181.0839514
 144.6787844  77.0609019 181.0833803 144.1072430  75.6610000 181.0830000
 142.7530000  75.6610000 181.0830000 144.7574269  74.6287992 181.0824242
 141.8460000  76.5650000 178.2880000 141.4749627  76.5646082 179.4214083
 141.4719482  75.9486945 181.0854991 148.6700424  77.9328952 181.9682020
 148.6707372  77.9319623 180.2032715 146.4082267  79.0159011 180.2024328
 146.4071634  79.0159044 181.9673625 146.5731151  76.5104740 181.9629224
 146.5730361  76.5119952 180.2027225 144.3115586  77.5793983 180.1911832
 144.3117875  77.5788719 181.9766810 142.3607631  76.5543881 181.0830000
 150.9790000  85.4030000  68.5660000 152.4287774  92.5042005  69.9921438
 150.9196515  92.4187848  69.9052115 150.3599757  91.5156163  70.9962000
 148.8612477  91.4600210  70.8293451 148.2421405  90.5932373  71.9023042
 146.7358159  90.7251808  71.8277451 146.1180844  89.9240000  70.6790000
 144.5720000  89.9240000  70.6790000 143.9646962  91.3507263  70.6790000
 144.4625752  92.2772788  69.5664628 143.9078467  93.6907891  69.7890727
 144.4153630  94.6542987  68.7210697 143.8634345  96.0654171  68.9418251
 144.3719850  97.0056350  67.8466482 143.8252930  98.4207717  68.0237523
 144.3378685  99.3381607  66.9258112 144.0485855  89.2741111  72.0260708
 144.3674433  90.0920878  73.2704143 143.8253105  89.4524234  74.5448002
 144.2533195  90.3163543  75.7249314 143.7370424  89.7950436  77.0595243
 144.2249724  90.7088103  78.1832741 143.7355094  90.2300682  79.5404483
 144.2233657  91.1410515  80.6543876 144.0171881  89.0533906  69.5126574
 144.3707005  87.5675280  69.4024780 143.9769989  86.6328091  70.5509994
 142.4689551  86.6481187  70.8059279 141.7944240  85.9982166  69.6154070
 140.2860011  86.0689084  69.6240254 139.8058935  85.3733068  68.3525470
 138.2978128  85.3700083  68.2604067 150.5170000  85.6710000  67.6110000
 150.4400455  85.3003397  67.6186543 150.3575611  84.9684972  69.3585043
 152.7239754  92.9056320  70.9678291 152.8641727  91.5022427  69.9024485
 150.6169720  92.0316836  68.9250912 150.4778237  93.4184455  70.0048742
 150.6232239  91.9088512  71.9832884 150.7884698  90.5067144  70.9169043
 148.6043187  91.0747845  69.8425598 148.4478951  92.4780287  70.9003450
 148.5762658  90.9312563  72.8885970 148.5563866  89.5477500  71.7985358
 146.4467068  91.7809578  71.7825596 146.4236052  90.3833389  72.7948530
 146.4383425  88.8809625  70.7283618 146.4323881  90.3264737  69.7112644
 144.2112357  91.8196140  71.6214736 142.8763203  91.2366983  70.6252458
 144.1420002  91.9247926  68.5804638 145.5557742  92.3335952  69.5579588
 144.2119731  94.0505757  70.7801851 142.8115120  93.6612478  69.7766421
 144.1209548  94.2927877  67.7312164 145.5115354  94.6847619  68.7455471
 144.1690479  96.4341915  69.9155017 142.7667292  96.0407877  68.9262742
 144.0755892  96.6188654  66.8653420 145.4680986  97.0302493  67.8683350
 144.1257766  98.8197647  68.9997785 142.7300217  98.4043078  68.0003739
 145.4309208  99.4014951  66.9463196 143.9350697 100.3468999  67.0543585
 144.0348333  98.9738719  65.9383785 144.5030542  88.2829619  72.1071353
 142.9606585  89.1635741  71.9167896 143.9136181  91.0840562  73.2141875
 145.4488946  90.2227973  73.3662741 144.2107371  88.4300534  74.6580741
 142.7304861  89.3880040  74.4975076 143.8905385  91.3413520  75.5754737
 145.3495863  90.3674758  75.7551921 144.0986746  88.7708178  77.2258960
 142.6439449  89.7631222  77.0498867 143.8701845  91.7322743  78.0046315
 145.3204190  90.7448191  78.1801142 144.0897463  89.2091405  79.7281609
 142.6380939  90.1983802  79.5546289 145.3183060  91.1736533  80.6811465
 143.8699238  90.7802630  81.6252081 143.8537895  92.1624462  80.5145654
 144.4300187  89.4842503  68.5963470 142.9319227  89.2052412  69.4959758
 145.4087693  87.4209571  69.1002213 143.8830396  87.2149919  68.4878611
 144.5420450  86.8257473  71.4658266 144.2797210  85.6101249  70.2824306
 142.0945027  87.6714618  70.9509114 142.2378803  86.1026479  71.7274419
 142.1243367  84.9531193  69.5597990 142.1139557  86.4767440  68.6877341
 139.9612828  87.1190481  69.6263643 139.8824417  85.5899961  70.5187257
 140.1771578  84.3416438  68.3353392 140.2227045  85.8741868  67.4697974
 137.8638941  84.8721213  69.1315216 137.9831443  84.8380585  67.3595859
 137.9161053  86.3943538  68.2123582 152.4480000  82.6040000  63.0000000
 142.0330000  94.5680000  72.2970000 148.3008435  97.0712258  73.2358018
 146.7716208  97.0803423  73.2358476 146.2069748  95.6583454  73.2349514
 144.6787844  95.6649019  73.2343803 144.1072430  94.2650000  73.2340000
 142.7530000  94.2650000  73.2340000 144.7574269  93.2327992  73.2334242
 141.8460000  95.1690000  70.4390000 141.4749627  95.1686082  71.5724083
 141.4719482  94.5526945  73.2364991 148.6700424  96.5368952  74.1192020
 148.6707372  96.5359623  72.3542715 146.4082267  97.6199011  72.3534328
 146.4071634  97.6199044  74.1183625 146.5731151  95.1144740  74.1139224
 146.5730361  95.1159952  72.3537225 144.3115586  96.1833983  72.3421832
 144.3117875  96.1828719  74.1276810 142.3607631  95.1583881  73.2340000
 150.9790000  85.4030000  86.5410000 152.4287774  92.5042005  87.9671438
 150.9196515  92.4187848  87.8802115 150.3599757  91.5156163  88.9712000
 148.8612477  91.4600210  88.8043451 148.2421405  90.5932373  89.8773042
 146.7358159  90.7251808  89.8027451 146.1180844  89.9240000  88.6540000
 144.5720000  89.9240000  88.6540000 143.9646962  91.3507263  88.6540000
 144.4625752  92.2772788  87.5414628 143.9078467  93.6907891  87.7640727
 144.4153630  94.6542987  86.6960697 143.8634345  96.0654171  86.9168251
 144.3719850  97.0056350  85.8216482 143.8252930  98.4207717  85.9987523
 144.3378685  99.3381607  84.9008112 144.0485855  89.2741111  90.0010708
 144.3674433  90.0920878  91.2454143 143.8253105  89.4524234  92.5198002
 144.2533195  90.3163543  93.6999314 143.7370424  89.7950436  95.0345243
 144.2249724  90.7088103  96.1582741 143.7355094  90.2300682  97.5154483
 144.2233657  91.1410515  98.6293876 144.0171881  89.0533906  87.4876574
 144.3707005  87.5675280  87.3774780 143.9769989  86.6328091  88.5259994
 142.4689551  86.6481187  88.7809279 141.7944240  85.9982166  87.5904070
 140.2860011  86.0689084  87.5990254 139.8058935  85.3733068  86.3275470
 138.2978128  85.3700083  86.2354067 150.5170000  85.6710000  85.5860000
 150.4400455  85.3003397  85.5936543 150.3575611  84.9684972  87.3335043
 152.7239754  92.9056320  88.9428291 152.8641727  91.5022427  87.8774485
 150.6169720  92.0316836  86.9000912 150.4778237  93.4184455  87.9798742
 150.6232239  91.9088512  89.9582884 150.7884698  90.5067144  88.8919043
 148.6043187  91.0747845  87.8175598 148.4478951  92.4780287  88.8753450
 148.5762658  90.9312563  90.8635970 148.5563866  89.5477500  89.7735358
 146.4467068  91.7809578  89.7575596 146.4236052  90.3833389  90.7698530
 146.4383425  88.8809625  88.7033618 146.4323881  90.3264737  87.6862644
 144.2112357  91.8196140  89.5964736 142.8763203  91.2366983  88.6002458
 144.1420002  91.9247926  86.5554638 145.5557742  92.3335952  87.5329588
 144.2119731  94.0505757  88.7551851 142.8115120  93.6612478  87.7516421
 144.1209548  94.2927877  85.7062164 145.5115354  94.6847619  86.7205471
 144.1690479  96.4341915  87.8905017 142.7667292  96.0407877  86.9012742
 144.0755892  96.6188654  84.8403420 145.4680986  97.0302493  85.8433350
 144.1257766  98.8197647  86.9747785 142.7300217  98.4043078  85.9753739
 145.4309208  99.4014951  84.9213196 143.9350697 100.3468999  85.0293585
 144.0348333  98.9738719  83.9133785 144.5030542  88.2829619  90.0821353
 142.9606585  89.1635741  89.8917896 143.9136181  91.0840562  91.1891875
 145.4488946  90.2227973  91.3412741 144.2107371  88.4300534  92.6330741
 142.7304861  89.3880040  92.4725076 143.8905385  91.3413520  93.5504737
 145.3495863  90.3674758  93.7301921 144.0986746  88.7708178  95.2008960
 142.6439449  89.7631222  95.0248867 143.8701845  91.7322743  95.9796315
 145.3204190  90.7448191  96.1551142 144.0897463  89.2091405  97.7031609
 142.6380939  90.1983802  97.5296289 145.3183060  91.1736533  98.6561465
 143.8699238  90.7802630  99.6002081 143.8537895  92.1624462  98.4895654
 144.4300187  89.4842503  86.5713470 142.9319227  89.2052412  87.4709758
 145.4087693  87.4209571  87.0752213 143.8830396  87.2149919  86.4628611
 144.5420450  86.8257473  89.4408266 144.2797210  85.6101249  88.2574306
 142.0945027  87.6714618  88.9259114 142.2378803  86.1026479  89.7024419
 142.1243367  84.9531193  87.5347990 142.1139557  86.4767440  86.6627341
 139.9612828  87.1190481  87.6013643 139.8824417  85.5899961  88.4937257
 140.1771578  84.3416438  86.3103392 140.2227045  85.8741868  85.4447974
 137.8638941  84.8721213  87.1065216 137.9831443  84.8380585  85.3345859
 137.9161053  86.3943538  86.1873582 152.4480000  82.6040000  80.9750000
 142.0330000  94.5680000  90.2720000 148.3008435  97.0712258  91.2108018
 146.7716208  97.0803423  91.2108476 146.2069748  95.6583454  91.2099514
 144.6787844  95.6649019  91.2093803 144.1072430  94.2650000  91.2090000
 142.7530000  94.2650000  91.2090000 144.7574269  93.2327992  91.2084242
 141.8460000  95.1690000  88.4140000 141.4749627  95.1686082  89.5474083
 141.4719482  94.5526945  91.2114991 148.6700424  96.5368952  92.0942020
 148.6707372  96.5359623  90.3292715 146.4082267  97.6199011  90.3284328
 146.4071634  97.6199044  92.0933625 146.5731151  95.1144740  92.0889224
 146.5730361  95.1159952  90.3287225 144.3115586  96.1833983  90.3171832
 144.3117875  96.1828719  92.1026810 142.3607631  95.1583881  91.2090000
 150.9790000  85.4030000 104.5160000 152.4287774  92.5042005 105.9421438
 150.9196515  92.4187848 105.8552115 150.3599757  91.5156163 106.9462000
 148.8612477  91.4600210 106.7793451 148.2421405  90.5932373 107.8523042
 146.7358159  90.7251808 107.7777451 146.1180844  89.9240000 106.6290000
 144.5720000  89.9240000 106.6290000 143.9646962  91.3507263 106.6290000
 144.4625752  92.2772788 105.5164628 143.9078467  93.6907891 105.7390727
 144.4153630  94.6542987 104.6710697 143.8634345  96.0654171 104.8918251
 144.3719850  97.0056350 103.7966482 143.8252930  98.4207717 103.9737523
 144.3378685  99.3381607 102.8758112 144.0485855  89.2741111 107.9760708
 144.3674433  90.0920878 109.2204143 143.8253105  89.4524234 110.4948002
 144.2533195  90.3163543 111.6749314 143.7370424  89.7950436 113.0095243
 144.2249724  90.7088103 114.1332741 143.7355094  90.2300682 115.4904483
 144.2233657  91.1410515 116.6043876 144.0171881  89.0533906 105.4626574
 144.3707005  87.5675280 105.3524780 143.9769989  86.6328091 106.5009994
 142.4689551  86.6481187 106.7559279 141.7944240  85.9982166 105.5654070
 140.2860011  86.0689084 105.5740254 139.8058935  85.3733068 104.3025470
 138.2978128  85.3700083 104.2104067 150.5170000  85.6710000 103.5610000
 150.4400455  85.3003397 103.5686543 150.3575611  84.9684972 105.3085043
 152.7239754  92.9056320 106.9178291 152.8641727  91.5022427 105.8524485
 150.6169720  92.0316836 104.8750912 150.4778237  93.4184455 105.9548742
 150.6232239  91.9088512 107.9332884 150.7884698  90.5067144 106.8669043
 148.6043187  91.0747845 105.7925598 148.4478951  92.4780287 106.8503450
 148.5762658  90.9312563 108.8385970 148.5563866  89.5477500 107.7485358
 146.4467068  91.7809578 107.7325596 146.4236052  90.3833389 108.7448530
 146.4383425  88.8809625 106.6783618 146.4323881  90.3264737 105.6612644
 144.2112357  91.8196140 107.5714736 142.8763203  91.2366983 106.5752458
 144.1420002  91.9247926 104.5304638 145.5557742  92.3335952 105.5079588
 144.2119731  94.0505757 106.7301851 142.8115120  93.6612478 105.7266421
 144.1209548  94.2927877 103.6812164 145.5115354  94.6847619 104.6955471
 144.1690479  96.4341915 105.8655017 142.7667292  96.0407877 104.8762742
 144.0755892  96.6188654 102.8153420 145.4680986  97.0302493 103.8183350
 144.1257766  98.8197647 104.9497785 142.7300217  98.4043078 103.9503739
 145.4309208  99.4014951 102.8963196 143.9350697 100.3468999 103.0043585
 144.0348333  98.9738719 101.8883785 144.5030542  88.2829619 108.0571353
 142.9606585  89.1635741 107.8667896 143.9136181  91.0840562 109.1641875
 145.4488946  90.2227973 109.3162741 144.2107371  88.4300534 110.6080741
 142.7304861  89.3880040 110.4475076 143.8905385  91.3413520 111.5254737
 145.3495863  90.3674758 111.7051921 144.0986746  88.7708178 113.1758960
 142.6439449  89.7631222 112.9998867 143.8701845  91.7322743 113.9546315
 145.3204190  90.7448191 114.1301142 144.0897463  89.2091405 115.6781609
 142.6380939  90.1983802 115.5046289 145.3183060  91.1736533 116.6311465
 143.8699238  90.7802630 117.5752081 143.8537895  92.1624462 116.4645654
 144.4300187  89.4842503 104.5463470 142.9319227  89.2052412 105.4459758
 145.4087693  87.4209571 105.0502213 143.8830396  87.2149919 104.4378611
 144.5420450  86.8257473 107.4158266 144.2797210  85.6101249 106.2324306
 142.0945027  87.6714618 106.9009114 142.2378803  86.1026479 107.6774419
 142.1243367  84.9531193 105.5097990 142.1139557  86.4767440 104.6377341
 139.9612828  87.1190481 105.5763643 139.8824417  85.5899961 106.4687257
 140.1771578  84.3416438 104.2853392 140.2227045  85.8741868 103.4197974
 137.8638941  84.8721213 105.0815216 137.9831443  84.8380585 103.3095859
 137.9161053  86.3943538 104.1623582 152.4480000  82.6040000  98.9500000
 142.0330000  94.5680000 108.2470000 148.3008435  97.0712258 109.1858018
 146.7716208  97.0803423 109.1858476 146.2069748  95.6583454 109.1849514
 144.6787844  95.6649019 109.1843803 144.1072430  94.2650000 109.1840000
 142.7530000  94.2650000 109.1840000 144.7574269  93.2327992 109.1834242
 141.8460000  95.1690000 106.3890000 141.4749627  95.1686082 107.5224083
 141.4719482  94.5526945 109.1864991 148.6700424  96.5368952 110.0692020
 148.6707372  96.5359623 108.3042715 146.4082267  97.6199011 108.3034328
 146.4071634  97.6199044 110.0683625 146.5731151  95.1144740 110.0639224
 146.5730361  95.1159952 108.3037225 144.3115586  96.1833983 108.2921832
 144.3117875  96.1828719 110.0776810 142.3607631  95.1583881 109.1840000
 150.9790000  85.4030000 122.4900000 152.4287774  92.5042005 123.9161438
 150.9196515  92.4187848 123.8292115 150.3599757  91.5156163 124.9202000
 148.8612477  91.4600210 124.7533451 148.2421405  90.5932373 125.8263042
 146.7358159  90.7251808 125.7517451 146.1180844  89.9240000 124.6030000
 144.5720000  89.9240000 124.6030000 143.9646962  91.3507263 124.6030000
 144.4625752  92.2772788 123.4904628 143.9078467  93.6907891 123.7130727
 144.4153630  94.6542987 122.6450697 143.8634345  96.0654171 122.8658251
 144.3719850  97.0056350 121.7706482 143.8252930  98.4207717 121.9477523
 144.3378685  99.3381607 120.8498112 144.0485855  89.2741111 125.9500708
 144.3674433  90.0920878 127.1944143 143.8253105  89.4524234 128.4688002
 144.2533195  90.3163543 129.6489314 143.7370424  89.7950436 130.9835243
 144.2249724  90.7088103 132.1072741 143.7355094  90.2300682 133.4644483
 144.2233657  91.1410515 134.5783876 144.0171881  89.0533906 123.4366574
 144.3707005  87.5675280 123.3264780 143.9769989  86.6328091 124.4749994
 142.4689551  86.6481187 124.7299279 141.7944240  85.9982166 123.5394070
 140.2860011  86.0689084 123.5480254 139.8058935  85.3733068 122.2765470
 138.2978128  85.3700083 122.1844067 150.5170000  85.6710000 121.5350000
 150.4400455  85.3003397 121.5426543 150.3575611  84.9684972 123.2825043
 152.7239754  92.9056320 124.8918291 152.8641727  91.5022427 123.8264485
 150.6169720  92.0316836 122.8490912 150.4778237  93.4184455 123.9288742
 150.6232239  91.9088512 125.9072884 150.7884698  90.5067144 124.8409043
 148.6043187  91.0747845 123.7665598 148.4478951  92.4780287 124.8243450
 148.5762658  90.9312563 126.8125970 148.5563866  89.5477500 125.7225358
 146.4467068  91.7809578 125.7065596 146.4236052  90.3833389 126.7188530
 146.4383425  88.8809625 124.6523618 146.4323881  90.3264737 123.6352644
 144.2112357  91.8196140 125.5454736 142.8763203  91.2366983 124.5492458
 144.1420002  91.9247926 122.5044638 145.5557742  92.3335952 123.4819588
 144.2119731  94.0505757 124.7041851 142.8115120  93.6612478 123.7006421
 144.1209548  94.2927877 121.6552164 145.5115354  94.6847619 122.6695471
 144.1690479  96.4341915 123.8395017 142.7667292  96.0407877 122.8502742
 144.0755892  96.6188654 120.7893420 145.4680986  97.0302493 121.7923350
 144.1257766  98.8197647 122.9237785 142.7300217  98.4043078 121.9243739
 145.4309208  99.4014951 120.8703196 143.9350697 100.3468999 120.9783585
 144.0348333  98.9738719 119.8623785 144.5030542  88.2829619 126.0311353
 142.9606585  89.1635741 125.8407896 143.9136181  91.0840562 127.1381875
 145.4488946  90.2227973 127.2902741 144.2107371  88.4300534 128.5820741
 142.7304861  89.3880040 128.4215076 143.8905385  91.3413520 129.4994737
 145.3495863  90.3674758 129.6791921 144.0986746  88.7708178 131.1498960
 142.6439449  89.7631222 130.9738867 143.8701845  91.7322743 131.9286315
 145.3204190  90.7448191 132.1041142 144.0897463  89.2091405 133.6521609
 142.6380939  90.1983802 133.4786289 145.3183060  91.1736533 134.6051465
 143.8699238  90.7802630 135.5492081 143.8537895  92.1624462 134.4385654
 144.4300187  89.4842503 122.5203470 142.9319227  89.2052412 123.4199758
 145.4087693  87.4209571 123.0242213 143.8830396  87.2149919 122.4118611
 144.5420450  86.8257473 125.3898266 144.2797210  85.6101249 124.2064306
 142.0945027  87.6714618 124.8749114 142.2378803  86.1026479 125.6514419
 142.1243367  84.9531193 123.4837990 142.1139557  86.4767440 122.6117341
 139.9612828  87.1190481 123.5503643 139.8824417  85.5899961 124.4427257
 140.1771578  84.3416438 122.2593392 140.2227045  85.8741868 121.3937974
 137.8638941  84.8721213 123.0555216 137.9831443  84.8380585 121.2835859
 137.9161053  86.3943538 122.1363582 152.4480000  82.6040000 116.9240000
 142.0330000  94.5680000 126.2210000 148.3008435  97.0712258 127.1598018
 146.7716208  97.0803423 127.1598476 146.2069748  95.6583454 127.1589514
 144.6787844  95.6649019 127.1583803 144.1072430  94.2650000 127.1580000
 142.7530000  94.2650000 127.1580000 144.7574269  93.2327992 127.1574242
 141.8460000  95.1690000 124.3630000 141.4749627  95.1686082 125.4964083
 141.4719482  94.5526945 127.1604991 148.6700424  96.5368952 128.0432020
 148.6707372  96.5359623 126.2782715 146.4082267  97.6199011 126.2774328
 146.4071634  97.6199044 128.0423625 146.5731151  95.1144740 128.0379224
 146.5730361  95.1159952 126.2777225 144.3115586  96.1833983 126.2661832
 144.3117875  96.1828719 128.0516810 142.3607631  95.1583881 127.1580000
 150.9790000  85.4030000 140.4650000 152.4287774  92.5042005 141.8911438
 150.9196515  92.4187848 141.8042115 150.3599757  91.5156163 142.8952000
 148.8612477  91.4600210 142.7283451 148.2421405  90.5932373 143.8013042
 146.7358159  90.7251808 143.7267451 146.1180844  89.9240000 142.5780000
 144.5720000  89.9240000 142.5780000 143.9646962  91.3507263 142.5780000
 144.4625752  92.2772788 141.4654628 143.9078467  93.6907891 141.6880727
 144.4153630  94.6542987 140.6200697 143.8634345  96.0654171 140.8408251
 144.3719850  97.0056350 139.7456482 143.8252930  98.4207717 139.9227523
 144.3378685  99.3381607 138.8248112 144.0485855  89.2741111 143.9250708
 144.3674433  90.0920878 145.1694143 143.8253105  89.4524234 146.4438002
 144.2533195  90.3163543 147.6239314 143.7370424  89.7950436 148.9585243
 144.2249724  90.7088103 150.0822741 143.7355094  90.2300682 151.4394483
 144.2233657  91.1410515 152.5533876 144.0171881  89.0533906 141.4116574
 144.3707005  87.5675280 141.3014780 143.9769989  86.6328091 142.4499994
 142.4689551  86.6481187 142.7049279 141.7944240  85.9982166 141.5144070
 140.2860011  86.0689084 141.5230254 139.8058935  85.3733068 140.2515470
 138.2978128  85.3700083 140.1594067 150.5170000  85.6710000 139.5100000
 150.4400455  85.3003397 139.5176543 150.3575611  84.9684972 141.2575043
 152.7239754  92.9056320 142.8668291 152.8641727  91.5022427 141.8014485
 150.6169720  92.0316836 140.8240912 150.4778237  93.4184455 141.9038742
 150.6232239  91.9088512 143.8822884 150.7884698  90.5067144 142.8159043
 148.6043187  91.0747845 141.7415598 148.4478951  92.4780287 142.7993450
 148.5762658  90.9312563 144.7875970 148.5563866  89.5477500 143.6975358
 146.4467068  91.7809578 143.6815596 146.4236052  90.3833389 144.6938530
 146.4383425  88.8809625 142.6273618 146.4323881  90.3264737 141.6102644
 144.2112357  91.8196140 143.5204736 142.8763203  91.2366983 142.5242458
 144.1420002  91.9247926 140.4794638 145.5557742  92.3335952 141.4569588
 144.2119731  94.0505757 142.6791851 142.8115120  93.6612478 141.6756421
 144.1209548  94.2927877 139.6302164 145.5115354  94.6847619 140.6445471
 144.1690479  96.4341915 141.8145017 142.7667292  96.0407877 140.8252742
 144.0755892  96.6188654 138.7643420 145.4680986  97.0302493 139.7673350
 144.1257766  98.8197647 140.8987785 142.7300217  98.4043078 139.8993739
 145.4309208  99.4014951 138.8453196 143.9350697 100.3468999 138.9533585
 144.0348333  98.9738719 137.8373785 144.5030542  88.2829619 144.0061353
 142.9606585  89.1635741 143.8157896 143.9136181  91.0840562 145.1131875
 145.4488946  90.2227973 145.2652741 144.2107371  88.4300534 146.5570741
 142.7304861  89.3880040 146.3965076 143.8905385  91.3413520 147.4744737
 145.3495863  90.3674758 147.6541921 144.0986746  88.7708178 149.1248960
 142.6439449  89.7631222 148.9488867 143.8701845  91.7322743 149.9036315
 145.3204190  90.7448191 150.0791142 144.0897463  89.2091405 151.6271609
 142.6380939  90.1983802 151.4536289 145.3183060  91.1736533 152.5801465
 143.8699238  90.7802630 153.5242081 143.8537895  92.1624462 152.4135654
 144.4300187  89.4842503 140.4953470 142.9319227  89.2052412 141.3949758
 145.4087693  87.4209571 140.9992213 143.8830396  87.2149919 140.3868611
 144.5420450  86.8257473 143.3648266 144.2797210  85.6101249 142.1814306
 142.0945027  87.6714618 142.8499114 142.2378803  86.1026479 143.6264419
 142.1243367  84.9531193 141.4587990 142.1139557  86.4767440 140.5867341
 139.9612828  87.1190481 141.5253643 139.8824417  85.5899961 142.4177257
 140.1771578  84.3416438 140.2343392 140.2227045  85.8741868 139.3687974
 137.8638941  84.8721213 141.0305216 137.9831443  84.8380585 139.2585859
 137.9161053  86.3943538 140.1113582 152.4480000  82.6040000 134.8990000
 142.0330000  94.5680000 144.1960000 148.3008435  97.0712258 145.1348018
 146.7716208  97.0803423 145.1348476 146.2069748  95.6583454 145.1339514
 144.6787844  95.6649019 145.1333803 144.1072430  94.2650000 145.1330000
 142.7530000  94.2650000 145.1330000 144.7574269  93.2327992 145.1324242
 141.8460000  95.1690000 142.3380000 141.4749627  95.1686082 143.4714083
 141.4719482  94.5526945 145.1354991 148.6700424  96.5368952 146.0182020
 148.6707372  96.5359623 144.2532715 146.4082267  97.6199011 144.2524328
 146.4071634  97.6199044 146.0173625 146.5731151  95.1144740 146.0129224
 146.5730361  95.1159952 144.2527225 144.3115586  96.1833983 144.2411832
 144.3117875  96.1828719 146.0266810 142.3607631  95.1583881 145.1330000
 150.9790000  85.4030000 158.4400000 152.4287774  92.5042005 159.8661438
 150.9196515  92.4187848 159.7792115 150.3599757  91.5156163 160.8702000
 148.8612477  91.4600210 160.7033451 148.2421405  90.5932373 161.7763042
 146.7358159  90.7251808 161.7017451 146.1180844  89.9240000 160.5530000
 144.5720000  89.9240000 160.5530000 143.9646962  91.3507263 160.5530000
 144.4625752  92.2772788 159.4404628 143.9078467  93.6907891 159.6630727
 144.4153630  94.6542987 158.5950697 143.8634345  96.0654171 158.8158251
 144.3719850  97.0056350 157.7206482 143.8252930  98.4207717 157.8977523
 144.3378685  99.3381607 156.7998112 144.0485855  89.2741111 161.9000708
 144.3674433  90.0920878 163.1444143 143.8253105  89.4524234 164.4188002
 144.2533195  90.3163543 165.5989314 143.7370424  89.7950436 166.9335243
 144.2249724  90.7088103 168.0572741 143.7355094  90.2300682 169.4144483
 144.2233657  91.1410515 170.5283876 144.0171881  89.0533906 159.3866574
 144.3707005  87.5675280 159.2764780 143.9769989  86.6328091 160.4249994
 142.4689551  86.6481187 160.6799279 141.7944240  85.9982166 159.4894070
 140.2860011  86.0689084 159.4980254 139.8058935  85.3733068 158.2265470
 138.2978128  85.3700083 158.1344067 150.5170000  85.6710000 157.4850000
 150.4400455  85.3003397 157.4926543 150.3575611  84.9684972 159.2325043
 152.7239754  92.9056320 160.8418291 152.8641727  91.5022427 159.7764485
 150.6169720  92.0316836 158.7990912 150.4778237  93.4184455 159.8788742
 150.6232239  91.9088512 161.8572884 150.7884698  90.5067144 160.7909043
 148.6043187  91.0747845 159.7165598 148.4478951  92.4780287 160.7743450
 148.5762658  90.9312563 162.7625970 148.5563866  89.5477500 161.6725358
 146.4467068  91.7809578 161.6565596 146.4236052  90.3833389 162.6688530
 146.4383425  88.8809625 160.6023618 146.4323881  90.3264737 159.5852644
 144.2112357  91.8196140 161.4954736 142.8763203  91.2366983 160.4992458
 144.1420002  91.9247926 158.4544638 145.5557742  92.3335952 159.4319588
 144.2119731  94.0505757 160.6541851 142.8115120  93.6612478 159.6506421
 144.1209548  94.2927877 157.6052164 145.5115354  94.6847619 158.6195471
 144.1690479  96.4341915 159.7895017 142.7667292  96.0407877 158.8002742
 144.0755892  96.6188654 156.7393420 145.4680986  97.0302493 157.7423350
 144.1257766  98.8197647 158.8737785 142.7300217  98.4043078 157.8743739
 145.4309208  99.4014951 156.8203196 143.9350697 100.3468999 156.9283585
 144.0348333  98.9738719 155.8123785 144.5030542  88.2829619 161.9811353
 142.9606585  89.1635741 161.7907896 143.9136181  91.0840562 163.0881875
 145.4488946  90.2227973 163.2402741 144.2107371  88.4300534 164.5320741
 142.7304861  89.3880040 164.3715076 143.8905385  91.3413520 165.4494737
 145.3495863  90.3674758 165.6291921 144.0986746  88.7708178 167.0998960
 142.6439449  89.7631222 166.9238867 143.8701845  91.7322743 167.8786315
 145.3204190  90.7448191 168.0541142 144.0897463  89.2091405 169.6021609
 142.6380939  90.1983802 169.4286289 145.3183060  91.1736533 170.5551465
 143.8699238  90.7802630 171.4992081 143.8537895  92.1624462 170.3885654
 144.4300187  89.4842503 158.4703470 142.9319227  89.2052412 159.3699758
 145.4087693  87.4209571 158.9742213 143.8830396  87.2149919 158.3618611
 144.5420450  86.8257473 161.3398266 144.2797210  85.6101249 160.1564306
 142.0945027  87.6714618 160.8249114 142.2378803  86.1026479 161.6014419
 142.1243367  84.9531193 159.4337990 142.1139557  86.4767440 158.5617341
 139.9612828  87.1190481 159.5003643 139.8824417  85.5899961 160.3927257
 140.1771578  84.3416438 158.2093392 140.2227045  85.8741868 157.3437974
 137.8638941  84.8721213 159.0055216 137.9831443  84.8380585 157.2335859
 137.9161053  86.3943538 158.0863582 152.4480000  82.6040000 152.8740000
 142.0330000  94.5680000 162.1710000 148.3008435  97.0712258 163.1098018
 146.7716208  97.0803423 163.1098476 146.2069748  95.6583454 163.1089514
 144.6787844  95.6649019 163.1083803 144.1072430  94.2650000 163.1080000
 142.7530000  94.2650000 163.1080000 144.7574269  93.2327992 163.1074242
 141.8460000  95.1690000 160.3130000 141.4749627  95.1686082 161.4464083
 141.4719482  94.5526945 163.1104991 148.6700424  96.5368952 163.9932020
 148.6707372  96.5359623 162.2282715 146.4082267  97.6199011 162.2274328
 146.4071634  97.6199044 163.9923625 146.5731151  95.1144740 163.9879224
 146.5730361  95.1159952 162.2277225 144.3115586  96.1833983 162.2161832
 144.3117875  96.1828719 164.0016810 142.3607631  95.1583881 163.1080000
 150.9790000  85.4030000 176.4150000 152.4287774  92.5042005 177.8411438
 150.9196515  92.4187848 177.7542115 150.3599757  91.5156163 178.8452000
 148.8612477  91.4600210 178.6783451 148.2421405  90.5932373 179.7513042
 146.7358159  90.7251808 179.6767451 146.1180844  89.9240000 178.5280000
 144.5720000  89.9240000 178.5280000 143.9646962  91.3507263 178.5280000
 144.4625752  92.2772788 177.4154628 143.9078467  93.6907891 177.6380727
 144.4153630  94.6542987 176.5700697 143.8634345  96.0654171 176.7908251
 144.3719850  97.0056350 175.6956482 143.8252930  98.4207717 175.8727523
 144.3378685  99.3381607 174.7748112 144.0485855  89.2741111 179.8750708
 144.3674433  90.0920878 181.1194143 143.8253105  89.4524234 182.3938002
 144.2533195  90.3163543 183.5739314 143.7370424  89.7950436 184.9085243
 144.2249724  90.7088103 186.0322741 143.7355094  90.2300682 187.3894483
 144.2233657  91.1410515 188.5033876 144.0171881  89.0533906 177.3616574
 144.3707005  87.5675280 177.2514780 143.9769989  86.6328091 178.3999994
 142.4689551  86.6481187 178.6549279 141.7944240  85.9982166 177.4644070
 140.2860011  86.0689084 177.4730254 139.8058935  85.3733068 176.2015470
 138.2978128  85.3700083 176.1094067 150.5170000  85.6710000 175.4600000
 150.4400455  85.3003397 175.4676543 150.3575611  84.9684972 177.2075043
 152.7239754  92.9056320 178.8168291 152.8641727  91.5022427 177.7514485
 150.6169720  92.0316836 176.7740912 150.4778237  93.4184455 177.8538742
 150.6232239  91.9088512 179.8322884 150.7884698  90.5067144 178.7659043
 148.6043187  91.0747845 177.6915598 148.4478951  92.4780287 178.7493450
 148.5762658  90.9312563 180.7375970 148.5563866  89.5477500 179.6475358
 146.4467068  91.7809578 179.6315596 146.4236052  90.3833389 180.6438530
 146.4383425  88.8809625 178.5773618 146.4323881  90.3264737 177.5602644
 144.2112357  91.8196140 179.4704736 142.8763203  91.2366983 178.4742458
 144.1420002  91.9247926 176.4294638 145.5557742  92.3335952 177.4069588
 144.2119731  94.0505757 178.6291851 142.8115120  93.6612478 177.6256421
 144.1209548  94.2927877 175.5802164 145.5115354  94.6847619 176.5945471
 144.1690479  96.4341915 177.7645017 142.7667292  96.0407877 176.7752742
 144.0755892  96.6188654 174.7143420 145.4680986  97.0302493 175.7173350
 144.1257766  98.8197647 176.8487785 142.7300217  98.4043078 175.8493739
 145.4309208  99.4014951 174.7953196 143.9350697 100.3468999 174.9033585
 144.0348333  98.9738719 173.7873785 144.5030542  88.2829619 179.9561353
 142.9606585  89.1635741 179.7657896 143.9136181  91.0840562 181.0631875
 145.4488946  90.2227973 181.2152741 144.2107371  88.4300534 182.5070741
 142.7304861  89.3880040 182.3465076 143.8905385  91.3413520 183.4244737
 145.3495863  90.3674758 183.6041921 144.0986746  88.7708178 185.0748960
 142.6439449  89.7631222 184.8988867 143.8701845  91.7322743 185.8536315
 145.3204190  90.7448191 186.0291142 144.0897463  89.2091405 187.5771609
 142.6380939  90.1983802 187.4036289 145.3183060  91.1736533 188.5301465
 143.8699238  90.7802630 189.4742081 143.8537895  92.1624462 188.3635654
 144.4300187  89.4842503 176.4453470 142.9319227  89.2052412 177.3449758
 145.4087693  87.4209571 176.9492213 143.8830396  87.2149919 176.3368611
 144.5420450  86.8257473 179.3148266 144.2797210  85.6101249 178.1314306
 142.0945027  87.6714618 178.7999114 142.2378803  86.1026479 179.5764419
 142.1243367  84.9531193 177.4087990 142.1139557  86.4767440 176.5367341
 139.9612828  87.1190481 177.4753643 139.8824417  85.5899961 178.3677257
 140.1771578  84.3416438 176.1843392 140.2227045  85.8741868 175.3187974
 137.8638941  84.8721213 176.9805216 137.9831443  84.8380585 175.2085859
 137.9161053  86.3943538 176.0613582 152.4480000  82.6040000 170.8490000
 142.0330000  94.5680000 180.1460000 148.3008435  97.0712258 181.0848018
 146.7716208  97.0803423 181.0848476 146.2069748  95.6583454 181.0839514
 144.6787844  95.6649019 181.0833803 144.1072430  94.2650000 181.0830000
 142.7530000  94.2650000 181.0830000 144.7574269  93.2327992 181.0824242
 141.8460000  95.1690000 178.2880000 141.4749627  95.1686082 179.4214083
 141.4719482  94.5526945 181.0854991 148.6700424  96.5368952 181.9682020
 148.6707372  96.5359623 180.2032715 146.4082267  97.6199011 180.2024328
 146.4071634  97.6199044 181.9673625 146.5731151  95.1144740 181.9629224
 146.5730361  95.1159952 180.2027225 144.3115586  96.1833983 180.1911832
 144.3117875  96.1828719 181.9766810 142.3607631  95.1583881 181.0830000
 150.9790000 104.0060000  68.5660000 152.4287774 111.1072005  69.9921438
 150.9196515 111.0217848  69.9052115 150.3599757 110.1186163  70.9962000
 148.8612477 110.0630210  70.8293451 148.2421405 109.1962373  71.9023042
 146.7358159 109.3281808  71.8277451 146.1180844 108.5270000  70.6790000
 144.5720000 108.5270000  70.6790000 143.9646962 109.9537263  70.6790000
 144.4625752 110.8802788  69.5664628 143.9078467 112.2937891  69.7890727
 144.4153630 113.2572987  68.7210697 143.8634345 114.6684171  68.9418251
 144.3719850 115.6086350  67.8466482 143.8252930 117.0237717  68.0237523
 144.3378685 117.9411607  66.9258112 144.0485855 107.8771111  72.0260708
 144.3674433 108.6950878  73.2704143 143.8253105 108.0554234  74.5448002
 144.2533195 108.9193543  75.7249314 143.7370424 108.3980436  77.0595243
 144.2249724 109.3118103  78.1832741 143.7355094 108.8330682  79.5404483
 144.2233657 109.7440515  80.6543876 144.0171881 107.6563906  69.5126574
 144.3707005 106.1705280  69.4024780 143.9769989 105.2358091  70.5509994
 142.4689551 105.2511187  70.8059279 141.7944240 104.6012166  69.6154070
 140.2860011 104.6719084  69.6240254 139.8058935 103.9763068  68.3525470
 138.2978128 103.9730083  68.2604067 150.5170000 104.2740000  67.6110000
 150.4400455 103.9033397  67.6186543 150.3575611 103.5714972  69.3585043
 152.7239754 111.5086320  70.9678291 152.8641727 110.1052427  69.9024485
 150.6169720 110.6346836  68.9250912 150.4778237 112.0214455  70.0048742
 150.6232239 110.5118512  71.9832884 150.7884698 109.1097144  70.9169043
 148.6043187 109.6777845  69.8425598 148.4478951 111.0810287  70.9003450
 148.5762658 109.5342563  72.8885970 148.5563866 108.1507500  71.7985358
 146.4467068 110.3839578  71.7825596 146.4236052 108.9863389  72.7948530
 146.4383425 107.4839625  70.7283618 146.4323881 108.9294737  69.7112644
 144.2112357 110.4226140  71.6214736 142.8763203 109.8396983  70.6252458
 144.1420002 110.5277926  68.5804638 145.5557742 110.9365952  69.5579588
 144.2119731 112.6535757  70.7801851 142.8115120 112.2642478  69.7766421
 144.1209548 112.8957877  67.7312164 145.5115354 113.2877619  68.7455471
 144.1690479 115.0371915  69.9155017 142.7667292 114.6437877  68.9262742
 144.0755892 115.2218654  66.8653420 145.4680986 115.6332493  67.8683350
 144.1257766 117.4227647  68.9997785 142.7300217 117.0073078  68.0003739
 145.4309208 118.0044951  66.9463196 143.9350697 118.9498999  67.0543585
 144.0348333 117.5768719  65.9383785 144.5030542 106.8859619  72.1071353
 142.9606585 107.7665741  71.9167896 143.9136181 109.6870562  73.2141875
 145.4488946 108.8257973  73.3662741 144.2107371 107.0330534  74.6580741
 142.7304861 107.9910040  74.4975076 143.8905385 109.9443520  75.5754737
 145.3495863 108.9704758  75.7551921 144.0986746 107.3738178  77.2258960
 142.6439449 108.3661222  77.0498867 143.8701845 110.3352743  78.0046315
 145.3204190 109.3478191  78.1801142 144.0897463 107.8121405  79.7281609
 142.6380939 108.8013802  79.5546289 145.3183060 109.7766533  80.6811465
 143.8699238 109.3832630  81.6252081 143.8537895 110.7654462  80.5145654
 144.4300187 108.0872503  68.5963470 142.9319227 107.8082412  69.4959758
 145.4087693 106.0239571  69.1002213 143.8830396 105.8179919  68.4878611
 144.5420450 105.4287473  71.4658266 144.2797210 104.2131249  70.2824306
 142.0945027 106.2744618  70.9509114 142.2378803 104.7056479  71.7274419
 142.1243367 103.5561193  69.5597990 142.1139557 105.0797440  68.6877341
 139.9612828 105.7220481  69.6263643 139.8824417 104.1929961  70.5187257
 140.1771578 102.9446438  68.3353392 140.2227045 104.4771868  67.4697974
 137.8638941 103.4751213  69.1315216 137.9831443 103.4410585  67.3595859
 137.9161053 104.9973538  68.2123582 152.4480000 101.2070000  63.0000000
 142.0330000 113.1710000  72.2970000 148.3008435 115.6742258  73.2358018
 146.7716208 115.6833423  73.2358476 146.2069748 114.2613454  73.2349514
 144.6787844 114.2679019  73.2343803 144.1072430 112.8680000  73.2340000
 142.7530000 112.8680000  73.2340000 144.7574269 111.8357992  73.2334242
 141.8460000 113.7720000  70.4390000 141.4749627 113.7716082  71.5724083
 141.4719482 113.1556945  73.2364991 148.6700424 115.1398952  74.1192020
 148.6707372 115.1389623  72.3542715 146.4082267 116.2229011  72.3534328
 146.4071634 116.2229044  74.1183625 146.5731151 113.7174740  74.1139224
 146.5730361 113.7189952  72.3537225 144.3115586 114.7863983  72.3421832
 144.3117875 114.7858719  74.1276810 142.3607631 113.7613881  73.2340000
 150.9790000 104.0060000  86.5410000 152.4287774 111.1072005  87.9671438
 150.9196515 111.0217848  87.8802115 150.3599757 110.1186163  88.9712000
 148.8612477 110.0630210  88.8043451 148.2421405 109.1962373  89.8773042
 146.7358159 109.3281808  89.8027451 146.1180844 108.5270000  88.6540000
 144.5720000 108.5270000  88.6540000 143.9646962 109.9537263  88.6540000
 144.4625752 110.8802788  87.5414628 143.9078467 112.2937891  87.7640727
 144.4153630 113.2572987  86.6960697 143.8634345 114.6684171  86.9168251
 144.3719850 115.6086350  85.8216482 143.8252930 117.0237717  85.9987523
 144.3378685 117.9411607  84.9008112 144.0485855 107.8771111  90.0010708
 144.3674433 108.6950878  91.2454143 143.8253105 108.0554234  92.5198002
 144.2533195 108.9193543  93.6999314 143.7370424 108.3980436  95.0345243
 144.2249724 109.3118103  96.1582741 143.7355094 108.8330682  97.5154483
 144.2233657 109.7440515  98.6293876 144.0171881 107.6563906  87.4876574
 144.3707005 106.1705280  87.3774780 143.9769989 105.2358091  88.5259994
 142.4689551 105.2511187  88.7809279 141.7944240 104.6012166  87.5904070
 140.2860011 104.6719084  87.5990254 139.8058935 103.9763068  86.3275470
 138.2978128 103.9730083  86.2354067 150.5170000 104.2740000  85.5860000
 150.4400455 103.9033397  85.5936543 150.3575611 103.5714972  87.3335043
 152.7239754 111.5086320  88.9428291 152.8641727 110.1052427  87.8774485
 150.6169720 110.6346836  86.9000912 150.4778237 112.0214455  87.9798742
 150.6232239 110.5118512  89.9582884 150.7884698 109.1097144  88.8919043
 148.6043187 109.6777845  87.8175598 148.4478951 111.0810287  88.8753450
 148.5762658 109.5342563  90.8635970 148.5563866 108.1507500  89.7735358
 146.4467068 110.3839578  89.7575596 146.4236052 108.9863389  90.7698530
 146.4383425 107.4839625  88.7033618 146.4323881 108.9294737  87.6862644
 144.2112357 110.4226140  89.5964736 142.8763203 109.8396983  88.6002458
 144.1420002 110.5277926  86.5554638 145.5557742 110.9365952  87.5329588
 144.2119731 112.6535757  88.7551851 142.8115120 112.2642478  87.7516421
 144.1209548 112.8957877  85.7062164 145.5115354 113.2877619  86.7205471
 144.1690479 115.0371915  87.8905017 142.7667292 114.6437877  86.9012742
 144.0755892 115.2218654  84.8403420 145.4680986 115.6332493  85.8433350
 144.1257766 117.4227647  86.9747785 142.7300217 117.0073078  85.9753739
 145.4309208 118.0044951  84.9213196 143.9350697 118.9498999  85.0293585
 144.0348333 117.5768719  83.9133785 144.5030542 106.8859619  90.0821353
 142.9606585 107.7665741  89.8917896 143.9136181 109.6870562  91.1891875
 145.4488946 108.8257973  91.3412741 144.2107371 107.0330534  92.6330741
 142.7304861 107.9910040  92.4725076 143.8905385 109.9443520  93.5504737
 145.3495863 108.9704758  93.7301921 144.0986746 107.3738178  95.2008960
 142.6439449 108.3661222  95.0248867 143.8701845 110.3352743  95.9796315
 145.3204190 109.3478191  96.1551142 144.0897463 107.8121405  97.7031609
 142.6380939 108.8013802  97.5296289 145.3183060 109.7766533  98.6561465
 143.8699238 109.3832630  99.6002081 143.8537895 110.7654462  98.4895654
 144.4300187 108.0872503  86.5713470 142.9319227 107.8082412  87.4709758
 145.4087693 106.0239571  87.0752213 143.8830396 105.8179919  86.4628611
 144.5420450 105.4287473  89.4408266 144.2797210 104.2131249  88.2574306
 142.0945027 106.2744618  88.9259114 142.2378803 104.7056479  89.7024419
 142.1243367 103.5561193  87.5347990 142.1139557 105.0797440  86.6627341
 139.9612828 105.7220481  87.6013643 139.8824417 104.1929961  88.4937257
 140.1771578 102.9446438  86.3103392 140.2227045 104.4771868  85.4447974
 137.8638941 103.4751213  87.1065216 137.9831443 103.4410585  85.3345859
 137.9161053 104.9973538  86.1873582 152.4480000 101.2070000  80.9750000
 142.0330000 113.1710000  90.2720000 148.3008435 115.6742258  91.2108018
 146.7716208 115.6833423  91.2108476 146.2069748 114.2613454  91.2099514
 144.6787844 114.2679019  91.2093803 144.1072430 112.8680000  91.2090000
 142.7530000 112.8680000  91.2090000 144.7574269 111.8357992  91.2084242
 141.8460000 113.7720000  88.4140000 141.4749627 113.7716082  89.5474083
 141.4719482 113.1556945  91.2114991 148.6700424 115.1398952  92.0942020
 148.6707372 115.1389623  90.3292715 146.4082267 116.2229011  90.3284328
 146.4071634 116.2229044  92.0933625 146.5731151 113.7174740  92.0889224
 146.5730361 113.7189952  90.3287225 144.3115586 114.7863983  90.3171832
 144.3117875 114.7858719  92.1026810 142.3607631 113.7613881  91.2090000
 150.9790000 104.0060000 104.5160000 152.4287774 111.1072005 105.9421438
 150.9196515 111.0217848 105.8552115 150.3599757 110.1186163 106.9462000
 148.8612477 110.0630210 106.7793451 148.2421405 109.1962373 107.8523042
 146.7358159 109.3281808 107.7777451 146.1180844 108.5270000 106.6290000
 144.5720000 108.5270000 106.6290000 143.9646962 109.9537263 106.6290000
 144.4625752 110.8802788 105.5164628 143.9078467 112.2937891 105.7390727
 144.4153630 113.2572987 104.6710697 143.8634345 114.6684171 104.8918251
 144.3719850 115.6086350 103.7966482 143.8252930 117.0237717 103.9737523
 144.3378685 117.9411607 102.8758112 144.0485855 107.8771111 107.9760708
 144.3674433 108.6950878 109.2204143 143.8253105 108.0554234 110.4948002
 144.2533195 108.9193543 111.6749314 143.7370424 108.3980436 113.0095243
 144.2249724 109.3118103 114.1332741 143.7355094 108.8330682 115.4904483
 144.2233657 109.7440515 116.6043876 144.0171881 107.6563906 105.4626574
 144.3707005 106.1705280 105.3524780 143.9769989 105.2358091 106.5009994
 142.4689551 105.2511187 106.7559279 141.7944240 104.6012166 105.5654070
 140.2860011 104.6719084 105.5740254 139.8058935 103.9763068 104.3025470
 138.2978128 103.9730083 104.2104067 150.5170000 104.2740000 103.5610000
 150.4400455 103.9033397 103.5686543 150.3575611 103.5714972 105.3085043
 152.7239754 111.5086320 106.9178291 152.8641727 110.1052427 105.8524485
 150.6169720 110.6346836 104.8750912 150.4778237 112.0214455 105.9548742
 150.6232239 110.5118512 107.9332884 150.7884698 109.1097144 106.8669043
 148.6043187 109.6777845 105.7925598 148.4478951 111.0810287 106.8503450
 148.5762658 109.5342563 108.8385970 148.5563866 108.1507500 107.7485358
 146.4467068 110.3839578 107.7325596 146.4236052 108.9863389 108.7448530
 146.4383425 107.4839625 106.6783618 146.4323881 108.9294737 105.6612644
 144.2112357 110.4226140 107.5714736 142.8763203 109.8396983 106.5752458
 144.1420002 110.5277926 104.5304638 145.5557742 110.9365952 105.5079588
 144.2119731 112.6535757 106.7301851 142.8115120 112.2642478 105.7266421
 144.1209548 112.8957877 103.6812164 145.5115354 113.2877619 104.6955471
 144.1690479 115.0371915 105.8655017 142.7667292 114.6437877 104.8762742
 144.0755892 115.2218654 102.8153420 145.4680986 115.6332493 103.8183350
 144.1257766 117.4227647 104.9497785 142.7300217 117.0073078 103.9503739
 145.4309208 118.0044951 102.8963196 143.9350697 118.9498999 103.0043585
 144.0348333 117.5768719 101.8883785 144.5030542 106.8859619 108.0571353
 142.9606585 107.7665741 107.8667896 143.9136181 109.6870562 109.1641875
 145.4488946 108.8257973 109.3162741 144.2107371 107.0330534 110.6080741
 142.7304861 107.9910040 110.4475076 143.8905385 109.9443520 111.5254737
 145.3495863 108.9704758 111.7051921 144.0986746 107.3738178 113.1758960
 142.6439449 108.3661222 112.9998867 143.8701845 110.3352743 113.9546315
 145.3204190 109.3478191 114.1301142 144.0897463 107.8121405 115.6781609
 142.6380939 108.8013802 115.5046289 145.3183060 109.7766533 116.6311465
 143.8699238 109.3832630 117.5752081 143.8537895 110.7654462 116.4645654
 144.4300187 108.0872503 104.5463470 142.9319227 107.8082412 105.4459758
 145.4087693 106.0239571 105.0502213 143.8830396 105.8179919 104.4378611
 144.5420450 105.4287473 107.4158266 144.2797210 104.2131249 106.2324306
 142.0945027 106.2744618 106.9009114 142.2378803 104.7056479 107.6774419
 142.1243367 103.5561193 105.5097990 142.1139557 105.0797440 104.6377341
 139.9612828 105.7220481 105.5763643 139.8824417 104.1929961 106.4687257
 140.1771578 102.9446438 104.2853392 140.2227045 104.4771868 103.4197974
 137.8638941 103.4751213 105.0815216 137.9831443 103.4410585 103.3095859
 137.9161053 104.9973538 104.1623582 152.4480000 101.2070000  98.9500000
 142.0330000 113.1710000 108.2470000 148.3008435 115.6742258 109.1858018
 146.7716208 115.6833423 109.1858476 146.2069748 114.2613454 109.1849514
 144.6787844 114.2679019 109.1843803 144.1072430 112.8680000 109.1840000
 142.7530000 112.8680000 109.1840000 144.7574269 111.8357992 109.1834242
 141.8460000 113.7720000 106.3890000 141.4749627 113.7716082 107.5224083
 141.4719482 113.1556945 109.1864991 148.6700424 115.1398952 110.0692020
 148.6707372 115.1389623 108.3042715 146.4082267 116.2229011 108.3034328
 146.4071634 116.2229044 110.0683625 146.5731151 113.7174740 110.0639224
 146.5730361 113.7189952 108.3037225 144.3115586 114.7863983 108.2921832
 144.3117875 114.7858719 110.0776810 142.3607631 113.7613881 109.1840000
 150.9790000 104.0060000 122.4900000 152.4287774 111.1072005 123.9161438
 150.9196515 111.0217848 123.8292115 150.3599757 110.1186163 124.9202000
 148.8612477 110.0630210 124.7533451 148.2421405 109.1962373 125.8263042
 146.7358159 109.3281808 125.7517451 146.1180844 108.5270000 124.6030000
 144.5720000 108.5270000 124.6030000 143.9646962 109.9537263 124.6030000
 144.4625752 110.8802788 123.4904628 143.9078467 112.2937891 123.7130727
 144.4153630 113.2572987 122.6450697 143.8634345 114.6684171 122.8658251
 144.3719850 115.6086350 121.7706482 143.8252930 117.0237717 121.9477523
 144.3378685 117.9411607 120.8498112 144.0485855 107.8771111 125.9500708
 144.3674433 108.6950878 127.1944143 143.8253105 108.0554234 128.4688002
 144.2533195 108.9193543 129.6489314 143.7370424 108.3980436 130.9835243
 144.2249724 109.3118103 132.1072741 143.7355094 108.8330682 133.4644483
 144.2233657 109.7440515 134.5783876 144.0171881 107.6563906 123.4366574
 144.3707005 106.1705280 123.3264780 143.9769989 105.2358091 124.4749994
 142.4689551 105.2511187 124.7299279 141.7944240 104.6012166 123.5394070
 140.2860011 104.6719084 123.5480254 139.8058935 103.9763068 122.2765470
 138.2978128 103.9730083 122.1844067 150.5170000 104.2740000 121.5350000
 150.4400455 103.9033397 121.5426543 150.3575611 103.5714972 123.2825043
 152.7239754 111.5086320 124.8918291 152.8641727 110.1052427 123.8264485
 150.6169720 110.6346836 122.8490912 150.4778237 112.0214455 123.9288742
 150.6232239 110.5118512 125.9072884 150.7884698 109.1097144 124.8409043
 148.6043187 109.6777845 123.7665598 148.4478951 111.0810287 124.8243450
 148.5762658 109.5342563 126.8125970 148.5563866 108.1507500 125.7225358
 146.4467068 110.3839578 125.7065596 146.4236052 108.9863389 126.7188530
 146.4383425 107.4839625 124.6523618 146.4323881 108.9294737 123.6352644
 144.2112357 110.4226140 125.5454736 142.8763203 109.8396983 124.5492458
 144.1420002 110.5277926 122.5044638 145.5557742 110.9365952 123.4819588
 144.2119731 112.6535757 124.7041851 142.8115120 112.2642478 123.7006421
 144.1209548 112.8957877 121.6552164 145.5115354 113.2877619 122.6695471
 144.1690479 115.0371915 123.8395017 142.7667292 114.6437877 122.8502742
 144.0755892 115.2218654 120.7893420 145.4680986 115.6332493 121.7923350
 144.1257766 117.4227647 122.9237785 142.7300217 117.0073078 121.9243739
 145.4309208 118.0044951 120.8703196 143.9350697 118.9498999 120.9783585
 144.0348333 117.5768719 119.8623785 144.5030542 106.8859619 126.0311353
 142.9606585 107.7665741 125.8407896 143.9136181 109.6870562 127.1381875
 145.4488946 108.8257973 127.2902741 144.2107371 107.0330534 128.5820741
 142.7304861 107.9910040 128.4215076 143.8905385 109.9443520 129.4994737
 145.3495863 108.9704758 129.6791921 144.0986746 107.3738178 131.1498960
 142.6439449 108.3661222 130.9738867 143.8701845 110.3352743 131.9286315
 145.3204190 109.3478191 132.1041142 144.0897463 107.8121405 133.6521609
 142.6380939 108.8013802 133.4786289 145.3183060 109.7766533 134.6051465
 143.8699238 109.3832630 135.5492081 143.8537895 110.7654462 134.4385654
 144.4300187 108.0872503 122.5203470 142.9319227 107.8082412 123.4199758
 145.4087693 106.0239571 123.0242213 143.8830396 105.8179919 122.4118611
 144.5420450 105.4287473 125.3898266 144.2797210 104.2131249 124.2064306
 142.0945027 106.2744618 124.8749114 142.2378803 104.7056479 125.6514419
 142.1243367 103.5561193 123.4837990 142.1139557 105.0797440 122.6117341
 139.9612828 105.7220481 123.5503643 139.8824417 104.1929961 124.4427257
 140.1771578 102.9446438 122.2593392 140.2227045 104.4771868 121.3937974
 137.8638941 103.4751213 123.0555216 137.9831443 103.4410585 121.2835859
 137.9161053 104.9973538 122.1363582 152.4480000 101.2070000 116.9240000
 142.0330000 113.1710000 126.2210000 148.3008435 115.6742258 127.1598018
 146.7716208 115.6833423 127.1598476 146.2069748 114.2613454 127.1589514
 144.6787844 114.2679019 127.1583803 144.1072430 112.8680000 127.1580000
 142.7530000 112.8680000 127.1580000 144.7574269 111.8357992 127.1574242
 141.8460000 113.7720000 124.3630000 141.4749627 113.7716082 125.4964083
 141.4719482 113.1556945 127.1604991 148.6700424 115.1398952 128.0432020
 148.6707372 115.1389623 126.2782715 146.4082267 116.2229011 126.2774328
 146.4071634 116.2229044 128.0423625 146.5731151 113.7174740 128.0379224
 146.5730361 113.7189952 126.2777225 144.3115586 114.7863983 126.2661832
 144.3117875 114.7858719 128.0516810 142.3607631 113.7613881 127.1580000
 150.9790000 104.0060000 140.4650000 152.4287774 111.1072005 141.8911438
 150.9196515 111.0217848 141.8042115 150.3599757 110.1186163 142.8952000
 148.8612477 110.0630210 142.7283451 148.2421405 109.1962373 143.8013042
 146.7358159 109.3281808 143.7267451 146.1180844 108.5270000 142.5780000
 144.5720000 108.5270000 142.5780000 143.9646962 109.9537263 142.5780000
 144.4625752 110.8802788 141.4654628 143.9078467 112.2937891 141.6880727
 144.4153630 113.2572987 140.6200697 143.8634345 114.6684171 140.8408251
 144.3719850 115.6086350 139.7456482 143.8252930 117.0237717 139.9227523
 144.3378685 117.9411607 138.8248112 144.0485855 107.8771111 143.9250708
 144.3674433 108.6950878 145.1694143 143.8253105 108.0554234 146.4438002
 144.2533195 108.9193543 147.6239314 143.7370424 108.3980436 148.9585243
 144.2249724 109.3118103 150.0822741 143.7355094 108.8330682 151.4394483
 144.2233657 109.7440515 152.5533876 144.0171881 107.6563906 141.4116574
 144.3707005 106.1705280 141.3014780 143.9769989 105.2358091 142.4499994
 142.4689551 105.2511187 142.7049279 141.7944240 104.6012166 141.5144070
 140.2860011 104.6719084 141.5230254 139.8058935 103.9763068 140.2515470
 138.2978128 103.9730083 140.1594067 150.5170000 104.2740000 139.5100000
 150.4400455 103.9033397 139.5176543 150.3575611 103.5714972 141.2575043
 152.7239754 111.5086320 142.8668291 152.8641727 110.1052427 141.8014485
 150.6169720 110.6346836 140.8240912 150.4778237 112.0214455 141.9038742
 150.6232239 110.5118512 143.8822884 150.7884698 109.1097144 142.8159043
 148.6043187 109.6777845 141.7415598 148.4478951 111.0810287 142.7993450
 148.5762658 109.5342563 144.7875970 148.5563866 108.1507500 143.6975358
 146.4467068 110.3839578 143.6815596 146.4236052 108.9863389 144.6938530
 146.4383425 107.4839625 142.6273618 146.4323881 108.9294737 141.6102644
 144.2112357 110.4226140 143.5204736 142.8763203 109.8396983 142.5242458
 144.1420002 110.5277926 140.4794638 145.5557742 110.9365952 141.4569588
 144.2119731 112.6535757 142.6791851 142.8115120 112.2642478 141.6756421
 144.1209548 112.8957877 139.6302164 145.5115354 113.2877619 140.6445471
 144.1690479 115.0371915 141.8145017 142.7667292 114.6437877 140.8252742
 144.0755892 115.2218654 138.7643420 145.4680986 115.6332493 139.7673350
 144.1257766 117.4227647 140.8987785 142.7300217 117.0073078 139.8993739
 145.4309208 118.0044951 138.8453196 143.9350697 118.9498999 138.9533585
 144.0348333 117.5768719 137.8373785 144.5030542 106.8859619 144.0061353
 142.9606585 107.7665741 143.8157896 143.9136181 109.6870562 145.1131875
 145.4488946 108.8257973 145.2652741 144.2107371 107.0330534 146.5570741
 142.7304861 107.9910040 146.3965076 143.8905385 109.9443520 147.4744737
 145.3495863 108.9704758 147.6541921 144.0986746 107.3738178 149.1248960
 142.6439449 108.3661222 148.9488867 143.8701845 110.3352743 149.9036315
 145.3204190 109.3478191 150.0791142 144.0897463 107.8121405 151.6271609
 142.6380939 108.8013802 151.4536289 145.3183060 109.7766533 152.5801465
 143.8699238 109.3832630 153.5242081 143.8537895 110.7654462 152.4135654
 144.4300187 108.0872503 140.4953470 142.9319227 107.8082412 141.3949758
 145.4087693 106.0239571 140.9992213 143.8830396 105.8179919 140.3868611
 144.5420450 105.4287473 143.3648266 144.2797210 104.2131249 142.1814306
 142.0945027 106.2744618 142.8499114 142.2378803 104.7056479 143.6264419
 142.1243367 103.5561193 141.4587990 142.1139557 105.0797440 140.5867341
 139.9612828 105.7220481 141.5253643 139.8824417 104.1929961 142.4177257
 140.1771578 102.9446438 140.2343392 140.2227045 104.4771868 139.3687974
 137.8638941 103.4751213 141.0305216 137.9831443 103.4410585 139.2585859
 137.9161053 104.9973538 140.1113582 152.4480000 101.2070000 134.8990000
 142.0330000 113.1710000 144.1960000 148.3008435 115.6742258 145.1348018
 146.7716208 115.6833423 145.1348476 146.2069748 114.2613454 145.1339514
 144.6787844 114.2679019 145.1333803 144.1072430 112.8680000 145.1330000
 142.7530000 112.8680000 145.1330000 144.7574269 111.8357992 145.1324242
 141.8460000 113.7720000 142.3380000 141.4749627 113.7716082 143.4714083
 141.4719482 113.1556945 145.1354991 148.6700424 115.1398952 146.0182020
 148.6707372 115.1389623 144.2532715 146.4082267 116.2229011 144.2524328
 146.4071634 116.2229044 146.0173625 146.5731151 113.7174740 146.0129224
 146.5730361 113.7189952 144.2527225 144.3115586 114.7863983 144.2411832
 144.3117875 114.7858719 146.0266810 142.3607631 113.7613881 145.1330000
 150.9790000 104.0060000 158.4400000 152.4287774 111.1072005 159.8661438
 150.9196515 111.0217848 159.7792115 150.3599757 110.1186163 160.8702000
 148.8612477 110.0630210 160.7033451 148.2421405 109.1962373 161.7763042
 146.7358159 109.3281808 161.7017451 146.1180844 108.5270000 160.5530000
 144.5720000 108.5270000 160.5530000 143.9646962 109.9537263 160.5530000
 144.4625752 110.8802788 159.4404628 143.9078467 112.2937891 159.6630727
 144.4153630 113.2572987 158.5950697 143.8634345 114.6684171 158.8158251
 144.3719850 115.6086350 157.7206482 143.8252930 117.0237717 157.8977523
 144.3378685 117.9411607 156.7998112 144.0485855 107.8771111 161.9000708
 144.3674433 108.6950878 163.1444143 143.8253105 108.0554234 164.4188002
 144.2533195 108.9193543 165.5989314 143.7370424 108.3980436 166.9335243
 144.2249724 109.3118103 168.0572741 143.7355094 108.8330682 169.4144483
 144.2233657 109.7440515 170.5283876 144.0171881 107.6563906 159.3866574
 144.3707005 106.1705280 159.2764780 143.9769989 105.2358091 160.4249994
 142.4689551 105.2511187 160.6799279 141.7944240 104.6012166 159.4894070
 140.2860011 104.6719084 159.4980254 139.8058935 103.9763068 158.2265470
 138.2978128 103.9730083 158.1344067 150.5170000 104.2740000 157.4850000
 150.4400455 103.9033397 157.4926543 150.3575611 103.5714972 159.2325043
 152.7239754 111.5086320 160.8418291 152.8641727 110.1052427 159.7764485
 150.6169720 110.6346836 158.7990912 150.4778237 112.0214455 159.8788742
 150.6232239 110.5118512 161.8572884 150.7884698 109.1097144 160.7909043
 148.6043187 109.6777845 159.7165598 148.4478951 111.0810287 160.7743450
 148.5762658 109.5342563 162.7625970 148.5563866 108.1507500 161.6725358
 146.4467068 110.3839578 161.6565596 146.4236052 108.9863389 162.6688530
 146.4383425 107.4839625 160.6023618 146.4323881 108.9294737 159.5852644
 144.2112357 110.4226140 161.4954736 142.8763203 109.8396983 160.4992458
 144.1420002 110.5277926 158.4544638 145.5557742 110.9365952 159.4319588
 144.2119731 112.6535757 160.6541851 142.8115120 112.2642478 159.6506421
 144.1209548 112.8957877 157.6052164 145.5115354 113.2877619 158.6195471
 144.1690479 115.0371915 159.7895017 142.7667292 114.6437877 158.8002742
 144.0755892 115.2218654 156.7393420 145.4680986 115.6332493 157.7423350
 144.1257766 117.4227647 158.8737785 142.7300217 117.0073078 157.8743739
 145.4309208 118.0044951 156.8203196 143.9350697 118.9498999 156.9283585
 144.0348333 117.5768719 155.8123785 144.5030542 106.8859619 161.9811353
 142.9606585 107.7665741 161.7907896 143.9136181 109.6870562 163.0881875
 145.4488946 108.8257973 163.2402741 144.2107371 107.0330534 164.5320741
 142.7304861 107.9910040 164.3715076 143.8905385 109.9443520 165.4494737
 145.3495863 108.9704758 165.6291921 144.0986746 107.3738178 167.0998960
 142.6439449 108.3661222 166.9238867 143.8701845 110.3352743 167.8786315
 145.3204190 109.3478191 168.0541142 144.0897463 107.8121405 169.6021609
 142.6380939 108.8013802 169.4286289 145.3183060 109.7766533 170.5551465
 143.8699238 109.3832630 171.4992081 143.8537895 110.7654462 170.3885654
 144.4300187 108.0872503 158.4703470 142.9319227 107.8082412 159.3699758
 145.4087693 106.0239571 158.9742213 143.8830396 105.8179919 158.3618611
 144.5420450 105.4287473 161.3398266 144.2797210 104.2131249 160.1564306
 142.0945027 106.2744618 160.8249114 142.2378803 104.7056479 161.6014419
 142.1243367 103.5561193 159.4337990 142.1139557 105.0797440 158.5617341
 139.9612828 105.7220481 159.5003643 139.8824417 104.1929961 160.3927257
 140.1771578 102.9446438 158.2093392 140.2227045 104.4771868 157.3437974
 137.8638941 103.4751213 159.0055216 137.9831443 103.4410585 157.2335859
 137.9161053 104.9973538 158.0863582 152.4480000 101.2070000 152.8740000
 142.0330000 113.1710000 162.1710000 148.3008435 115.6742258 163.1098018
 146.7716208 115.6833423 163.1098476 146.2069748 114.2613454 163.1089514
 144.6787844 114.2679019 163.1083803 144.1072430 112.8680000 163.1080000
 142.7530000 112.8680000 163.1080000 144.7574269 111.8357992 163.1074242
 141.8460000 113.7720000 160.3130000 141.4749627 113.7716082 161.4464083
 141.4719482 113.1556945 163.1104991 148.6700424 115.1398952 163.9932020
 148.6707372 115.1389623 162.2282715 146.4082267 116.2229011 162.2274328
 146.4071634 116.2229044 163.9923625 146.5731151 113.7174740 163.9879224
 146.5730361 113.7189952 162.2277225 144.3115586 114.7863983 162.2161832
 144.3117875 114.7858719 164.0016810 142.3607631 113.7613881 163.1080000
 150.9790000 104.0060000 176.4150000 152.4287774 111.1072005 177.8411438
 150.9196515 111.0217848 177.7542115 150.3599757 110.1186163 178.8452000
 148.8612477 110.0630210 178.6783451 148.2421405 109.1962373 179.7513042
 146.7358159 109.3281808 179.6767451 146.1180844 108.5270000 178.5280000
 144.5720000 108.5270000 178.5280000 143.9646962 109.9537263 178.5280000
 144.4625752 110.8802788 177.4154628 143.9078467 112.2937891 177.6380727
 144.4153630 113.2572987 176.5700697 143.8634345 114.6684171 176.7908251
 144.3719850 115.6086350 175.6956482 143.8252930 117.0237717 175.8727523
 144.3378685 117.9411607 174.7748112 144.0485855 107.8771111 179.8750708
 144.3674433 108.6950878 181.1194143 143.8253105 108.0554234 182.3938002
 144.2533195 108.9193543 183.5739314 143.7370424 108.3980436 184.9085243
 144.2249724 109.3118103 186.0322741 143.7355094 108.8330682 187.3894483
 144.2233657 109.7440515 188.5033876 144.0171881 107.6563906 177.3616574
 144.3707005 106.1705280 177.2514780 143.9769989 105.2358091 178.3999994
 142.4689551 105.2511187 178.6549279 141.7944240 104.6012166 177.4644070
 140.2860011 104.6719084 177.4730254 139.8058935 103.9763068 176.2015470
 138.2978128 103.9730083 176.1094067 150.5170000 104.2740000 175.4600000
 150.4400455 103.9033397 175.4676543 150.3575611 103.5714972 177.2075043
 152.7239754 111.5086320 178.8168291 152.8641727 110.1052427 177.7514485
 150.6169720 110.6346836 176.7740912 150.4778237 112.0214455 177.8538742
 150.6232239 110.5118512 179.8322884 150.7884698 109.1097144 178.7659043
 148.6043187 109.6777845 177.6915598 148.4478951 111.0810287 178.7493450
 148.5762658 109.5342563 180.7375970 148.5563866 108.1507500 179.6475358
 146.4467068 110.3839578 179.6315596 146.4236052 108.9863389 180.6438530
 146.4383425 107.4839625 178.5773618 146.4323881 108.9294737 177.5602644
 144.2112357 110.4226140 179.4704736 142.8763203 109.8396983 178.4742458
 144.1420002 110.5277926 176.4294638 145.5557742 110.9365952 177.4069588
 144.2119731 112.6535757 178.6291851 142.8115120 112.2642478 177.6256421
 144.1209548 112.8957877 175.5802164 145.5115354 113.2877619 176.5945471
 144.1690479 115.0371915 177.7645017 142.7667292 114.6437877 176.7752742
 144.0755892 115.2218654 174.7143420 145.4680986 115.6332493 175.7173350
 144.1257766 117.4227647 176.8487785 142.7300217 117.0073078 175.8493739
 145.4309208 118.0044951 174.7953196 143.9350697 118.9498999 174.9033585
 144.0348333 117.5768719 173.7873785 144.5030542 106.8859619 179.9561353
 142.9606585 107.7665741 179.7657896 143.9136181 109.6870562 181.0631875
 145.4488946 108.8257973 181.2152741 144.2107371 107.0330534 182.5070741
 142.7304861 107.9910040 182.3465076 143.8905385 109.9443520 183.4244737
 145.3495863 108.9704758 183.6041921 144.0986746 107.3738178 185.0748960
 142.6439449 108.3661222 184.8988867 143.8701845 110.3352743 185.8536315
 145.3204190 109.3478191 186.0291142 144.0897463 107.8121405 187.5771609
 142.6380939 108.8013802 187.4036289 145.3183060 109.7766533 188.5301465
 143.8699238 109.3832630 189.4742081 143.8537895 110.7654462 188.3635654
 144.4300187 108.0872503 176.4453470 142.9319227 107.8082412 177.3449758
 145.4087693 106.0239571 176.9492213 143.8830396 105.8179919 176.3368611
 144.5420450 105.4287473 179.3148266 144.2797210 104.2131249 178.1314306
 142.0945027 106.2744618 178.7999114 142.2378803 104.7056479 179.5764419
 142.1243367 103.5561193 177.4087990 142.1139557 105.0797440 176.5367341
 139.9612828 105.7220481 177.4753643 139.8824417 104.1929961 178.3677257
 140.1771578 102.9446438 176.1843392 140.2227045 104.4771868 175.3187974
 137.8638941 103.4751213 176.9805216 137.9831443 103.4410585 175.2085859
 137.9161053 104.9973538 176.0613582 152.4480000 101.2070000 170.8490000
 142.0330000 113.1710000 180.1460000 148.3008435 115.6742258 181.0848018
 146.7716208 115.6833423 181.0848476 146.2069748 114.2613454 181.0839514
 144.6787844 114.2679019 181.0833803 144.1072430 112.8680000 181.0830000
 142.7530000 112.8680000 181.0830000 144.7574269 111.8357992 181.0824242
 141.8460000 113.7720000 178.2880000 141.4749627 113.7716082 179.4214083
 141.4719482 113.1556945 181.0854991 148.6700424 115.1398952 181.9682020
 148.6707372 115.1389623 180.2032715 146.4082267 116.2229011 180.2024328
 146.4071634 116.2229044 181.9673625 146.5731151 113.7174740 181.9629224
 146.5730361 113.7189952 180.2027225 144.3115586 114.7863983 180.1911832
 144.3117875 114.7858719 181.9766810 142.3607631 113.7613881 181.0830000
 150.9790000 122.6100000  68.5660000 152.4287774 129.7112005  69.9921438
 150.9196515 129.6257848  69.9052115 150.3599757 128.7226163  70.9962000
 148.8612477 128.6670210  70.8293451 148.2421405 127.8002373  71.9023042
 146.7358159 127.9321808  71.8277451 146.1180844 127.1310000  70.6790000
 144.5720000 127.1310000  70.6790000 143.9646962 128.5577263  70.6790000
 144.4625752 129.4842788  69.5664628 143.9078467 130.8977891  69.7890727
 144.4153630 131.8612987  68.7210697 143.8634345 133.2724171  68.9418251
 144.3719850 134.2126350  67.8466482 143.8252930 135.6277717  68.0237523
 144.3378685 136.5451607  66.9258112 144.0485855 126.4811111  72.0260708
 144.3674433 127.2990878  73.2704143 143.8253105 126.6594234  74.5448002
 144.2533195 127.5233543  75.7249314 143.7370424 127.0020436  77.0595243
 144.2249724 127.9158103  78.1832741 143.7355094 127.4370682  79.5404483
 144.2233657 128.3480515  80.6543876 144.0171881 126.2603906  69.5126574
 144.3707005 124.7745280  69.4024780 143.9769989 123.8398091  70.5509994
 142.4689551 123.8551187  70.8059279 141.7944240 123.2052166  69.6154070
 140.2860011 123.2759084  69.6240254 139.8058935 122.5803068  68.3525470
 138.2978128 122.5770083  68.2604067 150.5170000 122.8780000  67.6110000
 150.4400455 122.5073397  67.6186543 150.3575611 122.1754972  69.3585043
 152.7239754 130.1126320  70.9678291 152.8641727 128.7092427  69.9024485
 150.6169720 129.2386836  68.9250912 150.4778237 130.6254455  70.0048742
 150.6232239 129.1158512  71.9832884 150.7884698 127.7137144  70.9169043
 148.6043187 128.2817845  69.8425598 148.4478951 129.6850287  70.9003450
 148.5762658 128.1382563  72.8885970 148.5563866 126.7547500  71.7985358
 146.4467068 128.9879578  71.7825596 146.4236052 127.5903389  72.7948530
 146.4383425 126.0879625  70.7283618 146.4323881 127.5334737  69.7112644
 144.2112357 129.0266140  71.6214736 142.8763203 128.4436983  70.6252458
 144.1420002 129.1317926  68.5804638 145.5557742 129.5405952  69.5579588
 144.2119731 131.2575757  70.7801851 142.8115120 130.8682478  69.7766421
 144.1209548 131.4997877  67.7312164 145.5115354 131.8917619  68.7455471
 144.1690479 133.6411915  69.9155017 142.7667292 133.2477877  68.9262742
 144.0755892 133.8258654  66.8653420 145.4680986 134.2372493  67.8683350
 144.1257766 136.0267647  68.9997785 142.7300217 135.6113078  68.0003739
 145.4309208 136.6084951  66.9463196 143.9350697 137.5538999  67.0543585
 144.0348333 136.1808719  65.9383785 144.5030542 125.4899619  72.1071353
 142.9606585 126.3705741  71.9167896 143.9136181 128.2910562  73.2141875
 145.4488946 127.4297973  73.3662741 144.2107371 125.6370534  74.6580741
 142.7304861 126.5950040  74.4975076 143.8905385 128.5483520  75.5754737
 145.3495863 127.5744758  75.7551921 144.0986746 125.9778178  77.2258960
 142.6439449 126.9701222  77.0498867 143.8701845 128.9392743  78.0046315
 145.3204190 127.9518191  78.1801142 144.0897463 126.4161405  79.7281609
 142.6380939 127.4053802  79.5546289 145.3183060 128.3806533  80.6811465
 143.8699238 127.9872630  81.6252081 143.8537895 129.3694462  80.5145654
 144.4300187 126.6912503  68.5963470 142.9319227 126.4122412  69.4959758
 145.4087693 124.6279571  69.1002213 143.8830396 124.4219919  68.4878611
 144.5420450 124.0327473  71.4658266 144.2797210 122.8171249  70.2824306
 142.0945027 124.8784618  70.9509114 142.2378803 123.3096479  71.7274419
 142.1243367 122.1601193  69.5597990 142.1139557 123.6837440  68.6877341
 139.9612828 124.3260481  69.6263643 139.8824417 122.7969961  70.5187257
 140.1771578 121.5486438  68.3353392 140.2227045 123.0811868  67.4697974
 137.8638941 122.0791213  69.1315216 137.9831443 122.0450585  67.3595859
 137.9161053 123.6013538  68.2123582 152.4480000 119.8110000  63.0000000
 142.0330000 131.7750000  72.2970000 148.3008435 134.2782258  73.2358018
 146.7716208 134.2873423  73.2358476 146.2069748 132.8653454  73.2349514
 144.6787844 132.8719019  73.2343803 144.1072430 131.4720000  73.2340000
 142.7530000 131.4720000  73.2340000 144.7574269 130.4397992  73.2334242
 141.8460000 132.3760000  70.4390000 141.4749627 132.3756082  71.5724083
 141.4719482 131.7596945  73.2364991 148.6700424 133.7438952  74.1192020
 148.6707372 133.7429623  72.3542715 146.4082267 134.8269011  72.3534328
 146.4071634 134.8269044  74.1183625 146.5731151 132.3214740  74.1139224
 146.5730361 132.3229952  72.3537225 144.3115586 133.3903983  72.3421832
 144.3117875 133.3898719  74.1276810 142.3607631 132.3653881  73.2340000
 150.9790000 122.6100000  86.5410000 152.4287774 129.7112005  87.9671438
 150.9196515 129.6257848  87.8802115 150.3599757 128.7226163  88.9712000
 148.8612477 128.6670210  88.8043451 148.2421405 127.8002373  89.8773042
 146.7358159 127.9321808  89.8027451 146.1180844 127.1310000  88.6540000
 144.5720000 127.1310000  88.6540000 143.9646962 128.5577263  88.6540000
 144.4625752 129.4842788  87.5414628 143.9078467 130.8977891  87.7640727
 144.4153630 131.8612987  86.6960697 143.8634345 133.2724171  86.9168251
 144.3719850 134.2126350  85.8216482 143.8252930 135.6277717  85.9987523
 144.3378685 136.5451607  84.9008112 144.0485855 126.4811111  90.0010708
 144.3674433 127.2990878  91.2454143 143.8253105 126.6594234  92.5198002
 144.2533195 127.5233543  93.6999314 143.7370424 127.0020436  95.0345243
 144.2249724 127.9158103  96.1582741 143.7355094 127.4370682  97.5154483
 144.2233657 128.3480515  98.6293876 144.0171881 126.2603906  87.4876574
 144.3707005 124.7745280  87.3774780 143.9769989 123.8398091  88.5259994
 142.4689551 123.8551187  88.7809279 141.7944240 123.2052166  87.5904070
 140.2860011 123.2759084  87.5990254 139.8058935 122.5803068  86.3275470
 138.2978128 122.5770083  86.2354067 150.5170000 122.8780000  85.5860000
 150.4400455 122.5073397  85.5936543 150.3575611 122.1754972  87.3335043
 152.7239754 130.1126320  88.9428291 152.8641727 128.7092427  87.8774485
 150.6169720 129.2386836  86.9000912 150.4778237 130.6254455  87.9798742
 150.6232239 129.1158512  89.9582884 150.7884698 127.7137144  88.8919043
 148.6043187 128.2817845  87.8175598 148.4478951 129.6850287  88.8753450
 148.5762658 128.1382563  90.8635970 148.5563866 126.7547500  89.7735358
 146.4467068 128.9879578  89.7575596 146.4236052 127.5903389  90.7698530
 146.4383425 126.0879625  88.7033618 146.4323881 127.5334737  87.6862644
 144.2112357 129.0266140  89.5964736 142.8763203 128.4436983  88.6002458
 144.1420002 129.1317926  86.5554638 145.5557742 129.5405952  87.5329588
 144.2119731 131.2575757  88.7551851 142.8115120 130.8682478  87.7516421
 144.1209548 131.4997877  85.7062164 145.5115354 131.8917619  86.7205471
 144.1690479 133.6411915  87.8905017 142.7667292 133.2477877  86.9012742
 144.0755892 133.8258654  84.8403420 145.4680986 134.2372493  85.8433350
 144.1257766 136.0267647  86.9747785 142.7300217 135.6113078  85.9753739
 145.4309208 136.6084951  84.9213196 143.9350697 137.5538999  85.0293585
 144.0348333 136.1808719  83.9133785 144.5030542 125.4899619  90.0821353
 142.9606585 126.3705741  89.8917896 143.9136181 128.2910562  91.1891875
 145.4488946 127.4297973  91.3412741 144.2107371 125.6370534  92.6330741
 142.7304861 126.5950040  92.4725076 143.8905385 128.5483520  93.5504737
 145.3495863 127.5744758  93.7301921 144.0986746 125.9778178  95.2008960
 142.6439449 126.9701222  95.0248867 143.8701845 128.9392743  95.9796315
 145.3204190 127.9518191  96.1551142 144.0897463 126.4161405  97.7031609
 142.6380939 127.4053802  97.5296289 145.3183060 128.3806533  98.6561465
 143.8699238 127.9872630  99.6002081 143.8537895 129.3694462  98.4895654
 144.4300187 126.6912503  86.5713470 142.9319227 126.4122412  87.4709758
 145.4087693 124.6279571  87.0752213 143.8830396 124.4219919  86.4628611
 144.5420450 124.0327473  89.4408266 144.2797210 122.8171249  88.2574306
 142.0945027 124.8784618  88.9259114 142.2378803 123.3096479  89.7024419
 142.1243367 122.1601193  87.5347990 142.1139557 123.6837440  86.6627341
 139.9612828 124.3260481  87.6013643 139.8824417 122.7969961  88.4937257
 140.1771578 121.5486438  86.3103392 140.2227045 123.0811868  85.4447974
 137.8638941 122.0791213  87.1065216 137.9831443 122.0450585  85.3345859
 137.9161053 123.6013538  86.1873582 152.4480000 119.8110000  80.9750000
 142.0330000 131.7750000  90.2720000 148.3008435 134.2782258  91.2108018
 146.7716208 134.2873423  91.2108476 146.2069748 132.8653454  91.2099514
 144.6787844 132.8719019  91.2093803 144.1072430 131.4720000  91.2090000
 142.7530000 131.4720000  91.2090000 144.7574269 130.4397992  91.2084242
 141.8460000 132.3760000  88.4140000 141.4749627 132.3756082  89.5474083
 141.4719482 131.7596945  91.2114991 148.6700424 133.7438952  92.0942020
 148.6707372 133.7429623  90.3292715 146.4082267 134.8269011  90.3284328
 146.4071634 134.8269044  92.0933625 146.5731151 132.3214740  92.0889224
 146.5730361 132.3229952  90.3287225 144.3115586 133.3903983  90.3171832
 144.3117875 133.3898719  92.1026810 142.3607631 132.3653881  91.2090000
 150.9790000 122.6100000 104.5160000 152.4287774 129.7112005 105.9421438
 150.9196515 129.6257848 105.8552115 150.3599757 128.7226163 106.9462000
 148.8612477 128.6670210 106.7793451 148.2421405 127.8002373 107.8523042
 146.7358159 127.9321808 107.7777451 146.1180844 127.1310000 106.6290000
 144.5720000 127.1310000 106.6290000 143.9646962 128.5577263 106.6290000
 144.4625752 129.4842788 105.5164628 143.9078467 130.8977891 105.7390727
 144.4153630 131.8612987 104.6710697 143.8634345 133.2724171 104.8918251
 144.3719850 134.2126350 103.7966482 143.8252930 135.6277717 103.9737523
 144.3378685 136.5451607 102.8758112 144.0485855 126.4811111 107.9760708
 144.3674433 127.2990878 109.2204143 143.8253105 126.6594234 110.4948002
 144.2533195 127.5233543 111.6749314 143.7370424 127.0020436 113.0095243
 144.2249724 127.9158103 114.1332741 143.7355094 127.4370682 115.4904483
 144.2233657 128.3480515 116.6043876 144.0171881 126.2603906 105.4626574
 144.3707005 124.7745280 105.3524780 143.9769989 123.8398091 106.5009994
 142.4689551 123.8551187 106.7559279 141.7944240 123.2052166 105.5654070
 140.2860011 123.2759084 105.5740254 139.8058935 122.5803068 104.3025470
 138.2978128 122.5770083 104.2104067 150.5170000 122.8780000 103.5610000
 150.4400455 122.5073397 103.5686543 150.3575611 122.1754972 105.3085043
 152.7239754 130.1126320 106.9178291 152.8641727 128.7092427 105.8524485
 150.6169720 129.2386836 104.8750912 150.4778237 130.6254455 105.9548742
 150.6232239 129.1158512 107.9332884 150.7884698 127.7137144 106.8669043
 148.6043187 128.2817845 105.7925598 148.4478951 129.6850287 106.8503450
 148.5762658 128.1382563 108.8385970 148.5563866 126.7547500 107.7485358
 146.4467068 128.9879578 107.7325596 146.4236052 127.5903389 108.7448530
 146.4383425 126.0879625 106.6783618 146.4323881 127.5334737 105.6612644
 144.2112357 129.0266140 107.5714736 142.8763203 128.4436983 106.5752458
 144.1420002 129.1317926 104.5304638 145.5557742 129.5405952 105.5079588
 144.2119731 131.2575757 106.7301851 142.8115120 130.8682478 105.7266421
 144.1209548 131.4997877 103.6812164 145.5115354 131.8917619 104.6955471
 144.1690479 133.6411915 105.8655017 142.7667292 133.2477877 104.8762742
 144.0755892 133.8258654 102.8153420 145.4680986 134.2372493 103.8183350
 144.1257766 136.0267647 104.9497785 142.7300217 135.6113078 103.9503739
 145.4309208 136.6084951 102.8963196 143.9350697 137.5538999 103.0043585
 144.0348333 136.1808719 101.8883785 144.5030542 125.4899619 108.0571353
 142.9606585 126.3705741 107.8667896 143.9136181 128.2910562 109.1641875
 145.4488946 127.4297973 109.3162741 144.2107371 125.6370534 110.6080741
 142.7304861 126.5950040 110.4475076 143.8905385 128.5483520 111.5254737
 145.3495863 127.5744758 111.7051921 144.0986746 125.9778178 113.1758960
 142.6439449 126.9701222 112.9998867 143.8701845 128.9392743 113.9546315
 145.3204190 127.9518191 114.1301142 144.0897463 126.4161405 115.6781609
 142.6380939 127.4053802 115.5046289 145.3183060 128.3806533 116.6311465
 143.8699238 127.9872630 117.5752081 143.8537895 129.3694462 116.4645654
 144.4300187 126.6912503 104.5463470 142.9319227 126.4122412 105.4459758
 145.4087693 124.6279571 105.0502213 143.8830396 124.4219919 104.4378611
 144.5420450 124.0327473 107.4158266 144.2797210 122.8171249 106.2324306
 142.0945027 124.8784618 106.9009114 142.2378803 123.3096479 107.6774419
 142.1243367 122.1601193 105.5097990 142.1139557 123.6837440 104.6377341
 139.9612828 124.3260481 105.5763643 139.8824417 122.7969961 106.4687257
 140.1771578 121.5486438 104.2853392 140.2227045 123.0811868 103.4197974
 137.8638941 122.0791213 105.0815216 137.9831443 122.0450585 103.3095859
 137.9161053 123.6013538 104.1623582 152.4480000 119.8110000  98.9500000
 142.0330000 131.7750000 108.2470000 148.3008435 134.2782258 109.1858018
 146.7716208 134.2873423 109.1858476 146.2069748 132.8653454 109.1849514
 144.6787844 132.8719019 109.1843803 144.1072430 131.4720000 109.1840000
 142.7530000 131.4720000 109.1840000 144.7574269 130.4397992 109.1834242
 141.8460000 132.3760000 106.3890000 141.4749627 132.3756082 107.5224083
 141.4719482 131.7596945 109.1864991 148.6700424 133.7438952 110.0692020
 148.6707372 133.7429623 108.3042715 146.4082267 134.8269011 108.3034328
 146.4071634 134.8269044 110.0683625 146.5731151 132.3214740 110.0639224
 146.5730361 132.3229952 108.3037225 144.3115586 133.3903983 108.2921832
 144.3117875 133.3898719 110.0776810 142.3607631 132.3653881 109.1840000
 150.9790000 122.6100000 122.4900000 152.4287774 129.7112005 123.9161438
 150.9196515 129.6257848 123.8292115 150.3599757 128.7226163 124.9202000
 148.8612477 128.6670210 124.7533451 148.2421405 127.8002373 125.8263042
 146.7358159 127.9321808 125.7517451 146.1180844 127.1310000 124.6030000
 144.5720000 127.1310000 124.6030000 143.9646962 128.5577263 124.6030000
 144.4625752 129.4842788 123.4904628 143.9078467 130.8977891 123.7130727
 144.4153630 131.8612987 122.6450697 143.8634345 133.2724171 122.8658251
 144.3719850 134.2126350 121.7706482 143.8252930 135.6277717 121.9477523
 144.3378685 136.5451607 120.8498112 144.0485855 126.4811111 125.9500708
 144.3674433 127.2990878 127.1944143 143.8253105 126.6594234 128.4688002
 144.2533195 127.5233543 129.6489314 143.7370424 127.0020436 130.9835243
 144.2249724 127.9158103 132.1072741 143.7355094 127.4370682 133.4644483
 144.2233657 128.3480515 134.5783876 144.0171881 126.2603906 123.4366574
 144.3707005 124.7745280 123.3264780 143.9769989 123.8398091 124.4749994
 142.4689551 123.8551187 124.7299279 141.7944240 123.2052166 123.5394070
 140.2860011 123.2759084 123.5480254 139.8058935 122.5803068 122.2765470
 138.2978128 122.5770083 122.1844067 150.5170000 122.8780000 121.5350000
 150.4400455 122.5073397 121.5426543 150.3575611 122.1754972 123.2825043
 152.7239754 130.1126320 124.8918291 152.8641727 128.7092427 123.8264485
 150.6169720 129.2386836 122.8490912 150.4778237 130.6254455 123.9288742
 150.6232239 129.1158512 125.9072884 150.7884698 127.7137144 124.8409043
 148.6043187 128.2817845 123.7665598 148.4478951 129.6850287 124.8243450
 148.5762658 128.1382563 126.8125970 148.5563866 126.7547500 125.7225358
 146.4467068 128.9879578 125.7065596 146.4236052 127.5903389 126.7188530
 146.4383425 126.0879625 124.6523618 146.4323881 127.5334737 123.6352644
 144.2112357 129.0266140 125.5454736 142.8763203 128.4436983 124.5492458
 144.1420002 129.1317926 122.5044638 145.5557742 129.5405952 123.4819588
 144.2119731 131.2575757 124.7041851 142.8115120 130.8682478 123.7006421
 144.1209548 131.4997877 121.6552164 145.5115354 131.8917619 122.6695471
 144.1690479 133.6411915 123.8395017 142.7667292 133.2477877 122.8502742
 144.0755892 133.8258654 120.7893420 145.4680986 134.2372493 121.7923350
 144.1257766 136.0267647 122.9237785 142.7300217 135.6113078 121.9243739
 145.4309208 136.6084951 120.8703196 143.9350697 137.5538999 120.9783585
 144.0348333 136.1808719 119.8623785 144.5030542 125.4899619 126.0311353
 142.9606585 126.3705741 125.8407896 143.9136181 128.2910562 127.1381875
 145.4488946 127.4297973 127.2902741 144.2107371 125.6370534 128.5820741
 142.7304861 126.5950040 128.4215076 143.8905385 128.5483520 129.4994737
 145.3495863 127.5744758 129.6791921 144.0986746 125.9778178 131.1498960
 142.6439449 126.9701222 130.9738867 143.8701845 128.9392743 131.9286315
 145.3204190 127.9518191 132.1041142 144.0897463 126.4161405 133.6521609
 142.6380939 127.4053802 133.4786289 145.3183060 128.3806533 134.6051465
 143.8699238 127.9872630 135.5492081 143.8537895 129.3694462 134.4385654
 144.4300187 126.6912503 122.5203470 142.9319227 126.4122412 123.4199758
 145.4087693 124.6279571 123.0242213 143.8830396 124.4219919 122.4118611
 144.5420450 124.0327473 125.3898266 144.2797210 122.8171249 124.2064306
 142.0945027 124.8784618 124.8749114 142.2378803 123.3096479 125.6514419
 142.1243367 122.1601193 123.4837990 142.1139557 123.6837440 122.6117341
 139.9612828 124.3260481 123.5503643 139.8824417 122.7969961 124.4427257
 140.1771578 121.5486438 122.2593392 140.2227045 123.0811868 121.3937974
 137.8638941 122.0791213 123.0555216 137.9831443 122.0450585 121.2835859
 137.9161053 123.6013538 122.1363582 152.4480000 119.8110000 116.9240000
 142.0330000 131.7750000 126.2210000 148.3008435 134.2782258 127.1598018
 146.7716208 134.2873423 127.1598476 146.2069748 132.8653454 127.1589514
 144.6787844 132.8719019 127.1583803 144.1072430 131.4720000 127.1580000
 142.7530000 131.4720000 127.1580000 144.7574269 130.4397992 127.1574242
 141.8460000 132.3760000 124.3630000 141.4749627 132.3756082 125.4964083
 141.4719482 131.7596945 127.1604991 148.6700424 133.7438952 128.0432020
 148.6707372 133.7429623 126.2782715 146.4082267 134.8269011 126.2774328
 146.4071634 134.8269044 128.0423625 146.5731151 132.3214740 128.0379224
 146.5730361 132.3229952 126.2777225 144.3115586 133.3903983 126.2661832
 144.3117875 133.3898719 128.0516810 142.3607631 132.3653881 127.1580000
 150.9790000 122.6100000 140.4650000 152.4287774 129.7112005 141.8911438
 150.9196515 129.6257848 141.8042115 150.3599757 128.7226163 142.8952000
 148.8612477 128.6670210 142.7283451 148.2421405 127.8002373 143.8013042
 146.7358159 127.9321808 143.7267451 146.1180844 127.1310000 142.5780000
 144.5720000 127.1310000 142.5780000 143.9646962 128.5577263 142.5780000
 144.4625752 129.4842788 141.4654628 143.9078467 130.8977891 141.6880727
 144.4153630 131.8612987 140.6200697 143.8634345 133.2724171 140.8408251
 144.3719850 134.2126350 139.7456482 143.8252930 135.6277717 139.9227523
 144.3378685 136.5451607 138.8248112 144.0485855 126.4811111 143.9250708
 144.3674433 127.2990878 145.1694143 143.8253105 126.6594234 146.4438002
 144.2533195 127.5233543 147.6239314 143.7370424 127.0020436 148.9585243
 144.2249724 127.9158103 150.0822741 143.7355094 127.4370682 151.4394483
 144.2233657 128.3480515 152.5533876 144.0171881 126.2603906 141.4116574
 144.3707005 124.7745280 141.3014780 143.9769989 123.8398091 142.4499994
 142.4689551 123.8551187 142.7049279 141.7944240 123.2052166 141.5144070
 140.2860011 123.2759084 141.5230254 139.8058935 122.5803068 140.2515470
 138.2978128 122.5770083 140.1594067 150.5170000 122.8780000 139.5100000
 150.4400455 122.5073397 139.5176543 150.3575611 122.1754972 141.2575043
 152.7239754 130.1126320 142.8668291 152.8641727 128.7092427 141.8014485
 150.6169720 129.2386836 140.8240912 150.4778237 130.6254455 141.9038742
 150.6232239 129.1158512 143.8822884 150.7884698 127.7137144 142.8159043
 148.6043187 128.2817845 141.7415598 148.4478951 129.6850287 142.7993450
 148.5762658 128.1382563 144.7875970 148.5563866 126.7547500 143.6975358
 146.4467068 128.9879578 143.6815596 146.4236052 127.5903389 144.6938530
 146.4383425 126.0879625 142.6273618 146.4323881 127.5334737 141.6102644
 144.2112357 129.0266140 143.5204736 142.8763203 128.4436983 142.5242458
 144.1420002 129.1317926 140.4794638 145.5557742 129.5405952 141.4569588
 144.2119731 131.2575757 142.6791851 142.8115120 130.8682478 141.6756421
 144.1209548 131.4997877 139.6302164 145.5115354 131.8917619 140.6445471
 144.1690479 133.6411915 141.8145017 142.7667292 133.2477877 140.8252742
 144.0755892 133.8258654 138.7643420 145.4680986 134.2372493 139.7673350
 144.1257766 136.0267647 140.8987785 142.7300217 135.6113078 139.8993739
 145.4309208 136.6084951 138.8453196 143.9350697 137.5538999 138.9533585
 144.0348333 136.1808719 137.8373785 144.5030542 125.4899619 144.0061353
 142.9606585 126.3705741 143.8157896 143.9136181 128.2910562 145.1131875
 145.4488946 127.4297973 145.2652741 144.2107371 125.6370534 146.5570741
 142.7304861 126.5950040 146.3965076 143.8905385 128.5483520 147.4744737
 145.3495863 127.5744758 147.6541921 144.0986746 125.9778178 149.1248960
 142.6439449 126.9701222 148.9488867 143.8701845 128.9392743 149.9036315
 145.3204190 127.9518191 150.0791142 144.0897463 126.4161405 151.6271609
 142.6380939 127.4053802 151.4536289 145.3183060 128.3806533 152.5801465
 143.8699238 127.9872630 153.5242081 143.8537895 129.3694462 152.4135654
 144.4300187 126.6912503 140.4953470 142.9319227 126.4122412 141.3949758
 145.4087693 124.6279571 140.9992213 143.8830396 124.4219919 140.3868611
 144.5420450 124.0327473 143.3648266 144.2797210 122.8171249 142.1814306
 142.0945027 124.8784618 142.8499114 142.2378803 123.3096479 143.6264419
 142.1243367 122.1601193 141.4587990 142.1139557 123.6837440 140.5867341
 139.9612828 124.3260481 141.5253643 139.8824417 122.7969961 142.4177257
 140.1771578 121.5486438 140.2343392 140.2227045 123.0811868 139.3687974
 137.8638941 122.0791213 141.0305216 137.9831443 122.0450585 139.2585859
 137.9161053 123.6013538 140.1113582 152.4480000 119.8110000 134.8990000
 142.0330000 131.7750000 144.1960000 148.3008435 134.2782258 145.1348018
 146.7716208 134.2873423 145.1348476 146.2069748 132.8653454 145.1339514
 144.6787844 132.8719019 145.1333803 144.1072430 131.4720000 145.1330000
 142.7530000 131.4720000 145.1330000 144.7574269 130.4397992 145.1324242
 141.8460000 132.3760000 142.3380000 141.4749627 132.3756082 143.4714083
 141.4719482 131.7596945 145.1354991 148.6700424 133.7438952 146.0182020
 148.6707372 133.7429623 144.2532715 146.4082267 134.8269011 144.2524328
 146.4071634 134.8269044 146.0173625 146.5731151 132.3214740 146.0129224
 146.5730361 132.3229952 144.2527225 144.3115586 133.3903983 144.2411832
 144.3117875 133.3898719 146.0266810 142.3607631 132.3653881 145.1330000
 150.9790000 122.6100000 158.4400000 152.4287774 129.7112005 159.8661438
 150.9196515 129.6257848 159.7792115 150.3599757 128.7226163 160.8702000
 148.8612477 128.6670210 160.7033451 148.2421405 127.8002373 161.7763042
 146.7358159 127.9321808 161.7017451 146.1180844 127.1310000 160.5530000
 144.5720000 127.1310000 160.5530000 143.9646962 128.5577263 160.5530000
 144.4625752 129.4842788 159.4404628 143.9078467 130.8977891 159.6630727
 144.4153630 131.8612987 158.5950697 143.8634345 133.2724171 158.8158251
 144.3719850 134.2126350 157.7206482 143.8252930 135.6277717 157.8977523
 144.3378685 136.5451607 156.7998112 144.0485855 126.4811111 161.9000708
 144.3674433 127.2990878 163.1444143 143.8253105 126.6594234 164.4188002
 144.2533195 127.5233543 165.5989314 143.7370424 127.0020436 166.9335243
 144.2249724 127.9158103 168.0572741 143.7355094 127.4370682 169.4144483
 144.2233657 128.3480515 170.5283876 144.0171881 126.2603906 159.3866574
 144.3707005 124.7745280 159.2764780 143.9769989 123.8398091 160.4249994
 142.4689551 123.8551187 160.6799279 141.7944240 123.2052166 159.4894070
 140.2860011 123.2759084 159.4980254 139.8058935 122.5803068 158.2265470
 138.2978128 122.5770083 158.1344067 150.5170000 122.8780000 157.4850000
 150.4400455 122.5073397 157.4926543 150.3575611 122.1754972 159.2325043
 152.7239754 130.1126320 160.8418291 152.8641727 128.7092427 159.7764485
 150.6169720 129.2386836 158.7990912 150.4778237 130.6254455 159.8788742
 150.6232239 129.1158512 161.8572884 150.7884698 127.7137144 160.7909043
 148.6043187 128.2817845 159.7165598 148.4478951 129.6850287 160.7743450
 148.5762658 128.1382563 162.7625970 148.5563866 126.7547500 161.6725358
 146.4467068 128.9879578 161.6565596 146.4236052 127.5903389 162.6688530
 146.4383425 126.0879625 160.6023618 146.4323881 127.5334737 159.5852644
 144.2112357 129.0266140 161.4954736 142.8763203 128.4436983 160.4992458
 144.1420002 129.1317926 158.4544638 145.5557742 129.5405952 159.4319588
 144.2119731 131.2575757 160.6541851 142.8115120 130.8682478 159.6506421
 144.1209548 131.4997877 157.6052164 145.5115354 131.8917619 158.6195471
 144.1690479 133.6411915 159.7895017 142.7667292 133.2477877 158.8002742
 144.0755892 133.8258654 156.7393420 145.4680986 134.2372493 157.7423350
 144.1257766 136.0267647 158.8737785 142.7300217 135.6113078 157.8743739
 145.4309208 136.6084951 156.8203196 143.9350697 137.5538999 156.9283585
 144.0348333 136.1808719 155.8123785 144.5030542 125.4899619 161.9811353
 142.9606585 126.3705741 161.7907896 143.9136181 128.2910562 163.0881875
 145.4488946 127.4297973 163.2402741 144.2107371 125.6370534 164.5320741
 142.7304861 126.5950040 164.3715076 143.8905385 128.5483520 165.4494737
 145.3495863 127.5744758 165.6291921 144.0986746 125.9778178 167.0998960
 142.6439449 126.9701222 166.9238867 143.8701845 128.9392743 167.8786315
 145.3204190 127.9518191 168.0541142 144.0897463 126.4161405 169.6021609
 142.6380939 127.4053802 169.4286289 145.3183060 128.3806533 170.5551465
 143.8699238 127.9872630 171.4992081 143.8537895 129.3694462 170.3885654
 144.4300187 126.6912503 158.4703470 142.9319227 126.4122412 159.3699758
 145.4087693 124.6279571 158.9742213 143.8830396 124.4219919 158.3618611
 144.5420450 124.0327473 161.3398266 144.2797210 122.8171249 160.1564306
 142.0945027 124.8784618 160.8249114 142.2378803 123.3096479 161.6014419
 142.1243367 122.1601193 159.4337990 142.1139557 123.6837440 158.5617341
 139.9612828 124.3260481 159.5003643 139.8824417 122.7969961 160.3927257
 140.1771578 121.5486438 158.2093392 140.2227045 123.0811868 157.3437974
 137.8638941 122.0791213 159.0055216 137.9831443 122.0450585 157.2335859
 137.9161053 123.6013538 158.0863582 152.4480000 119.8110000 152.8740000
 142.0330000 131.7750000 162.1710000 148.3008435 134.2782258 163.1098018
 146.7716208 134.2873423 163.1098476 146.2069748 132.8653454 163.1089514
 144.6787844 132.8719019 163.1083803 144.1072430 131.4720000 163.1080000
 142.7530000 131.4720000 163.1080000 144.7574269 130.4397992 163.1074242
 141.8460000 132.3760000 160.3130000 141.4749627 132.3756082 161.4464083
 141.4719482 131.7596945 163.1104991 148.6700424 133.7438952 163.9932020
 148.6707372 133.7429623 162.2282715 146.4082267 134.8269011 162.2274328
 146.4071634 134.8269044 163.9923625 146.5731151 132.3214740 163.9879224
 146.5730361 132.3229952 162.2277225 144.3115586 133.3903983 162.2161832
 144.3117875 133.3898719 164.0016810 142.3607631 132.3653881 163.1080000
 150.9790000 122.6100000 176.4150000 152.4287774 129.7112005 177.8411438
 150.9196515 129.6257848 177.7542115 150.3599757 128.7226163 178.8452000
 148.8612477 128.6670210 178.6783451 148.2421405 127.8002373 179.7513042
 146.7358159 127.9321808 179.6767451 146.1180844 127.1310000 178.5280000
 144.5720000 127.1310000 178.5280000 143.9646962 128.5577263 178.5280000
 144.4625752 129.4842788 177.4154628 143.9078467 130.8977891 177.6380727
 144.4153630 131.8612987 176.5700697 143.8634345 133.2724171 176.7908251
 144.3719850 134.2126350 175.6956482 143.8252930 135.6277717 175.8727523
 144.3378685 136.5451607 174.7748112 144.0485855 126.4811111 179.8750708
 144.3674433 127.2990878 181.1194143 143.8253105 126.6594234 182.3938002
 144.2533195 127.5233543 183.5739314 143.7370424 127.0020436 184.9085243
 144.2249724 127.9158103 186.0322741 143.7355094 127.4370682 187.3894483
 144.2233657 128.3480515 188.5033876 144.0171881 126.2603906 177.3616574
 144.3707005 124.7745280 177.2514780 143.9769989 123.8398091 178.3999994
 142.4689551 123.8551187 178.6549279 141.7944240 123.2052166 177.4644070
 140.2860011 123.2759084 177.4730254 139.8058935 122.5803068 176.2015470
 138.2978128 122.5770083 176.1094067 150.5170000 122.8780000 175.4600000
 150.4400455 122.5073397 175.4676543 150.3575611 122.1754972 177.2075043
 152.7239754 130.1126320 178.8168291 152.8641727 128.7092427 177.7514485
 150.6169720 129.2386836 176.7740912 150.4778237 130.6254455 177.8538742
 150.6232239 129.1158512 179.8322884 150.7884698 127.7137144 178.7659043
 148.6043187 128.2817845 177.6915598 148.4478951 129.6850287 178.7493450
 148.5762658 128.1382563 180.7375970 148.5563866 126.7547500 179.6475358
 146.4467068 128.9879578 179.6315596 146.4236052 127.5903389 180.6438530
 146.4383425 126.0879625 178.5773618 146.4323881 127.5334737 177.5602644
 144.2112357 129.0266140 179.4704736 142.8763203 128.4436983 178.4742458
 144.1420002 129.1317926 176.4294638 145.5557742 129.5405952 177.4069588
 144.2119731 131.2575757 178.6291851 142.8115120 130.8682478 177.6256421
 144.1209548 131.4997877 175.5802164 145.5115354 131.8917619 176.5945471
 144.1690479 133.6411915 177.7645017 142.7667292 133.2477877 176.7752742
 144.0755892 133.8258654 174.7143420 145.4680986 134.2372493 175.7173350
 144.1257766 136.0267647 176.8487785 142.7300217 135.6113078 175.8493739
 145.4309208 136.6084951 174.7953196 143.9350697 137.5538999 174.9033585
 144.0348333 136.1808719 173.7873785 144.5030542 125.4899619 179.9561353
 142.9606585 126.3705741 179.7657896 143.9136181 128.2910562 181.0631875
 145.4488946 127.4297973 181.2152741 144.2107371 125.6370534 182.5070741
 142.7304861 126.5950040 182.3465076 143.8905385 128.5483520 183.4244737
 145.3495863 127.5744758 183.6041921 144.0986746 125.9778178 185.0748960
 142.6439449 126.9701222 184.8988867 143.8701845 128.9392743 185.8536315
 145.3204190 127.9518191 186.0291142 144.0897463 126.4161405 187.5771609
 142.6380939 127.4053802 187.4036289 145.3183060 128.3806533 188.5301465
 143.8699238 127.9872630 189.4742081 143.8537895 129.3694462 188.3635654
 144.4300187 126.6912503 176.4453470 142.9319227 126.4122412 177.3449758
 145.4087693 124.6279571 176.9492213 143.8830396 124.4219919 176.3368611
 144.5420450 124.0327473 179.3148266 144.2797210 122.8171249 178.1314306
 142.0945027 124.8784618 178.7999114 142.2378803 123.3096479 179.5764419
 142.1243367 122.1601193 177.4087990 142.1139557 123.6837440 176.5367341
 139.9612828 124.3260481 177.4753643 139.8824417 122.7969961 178.3677257
 140.1771578 121.5486438 176.1843392 140.2227045 123.0811868 175.3187974
 137.8638941 122.0791213 176.9805216 137.9831443 122.0450585 175.2085859
 137.9161053 123.6013538 176.0613582 152.4480000 119.8110000 170.8490000
 142.0330000 131.7750000 180.1460000 148.3008435 134.2782258 181.0848018
 146.7716208 134.2873423 181.0848476 146.2069748 132.8653454 181.0839514
 144.6787844 132.8719019 181.0833803 144.1072430 131.4720000 181.0830000
 142.7530000 131.4720000 181.0830000 144.7574269 130.4397992 181.0824242
 141.8460000 132.3760000 178.2880000 141.4749627 132.3756082 179.4214083
 141.4719482 131.7596945 181.0854991 148.6700424 133.7438952 181.9682020
 148.6707372 133.7429623 180.2032715 146.4082267 134.8269011 180.2024328
 146.4071634 134.8269044 181.9673625 146.5731151 132.3214740 181.9629224
 146.5730361 132.3229952 180.2027225 144.3115586 133.3903983 180.1911832
 144.3117875 133.3898719 181.9766810 142.3607631 132.3653881 181.0830000
 150.9790000 141.2130000  68.5660000 152.4287774 148.3142005  69.9921438
 150.9196515 148.2287848  69.9052115 150.3599757 147.3256163  70.9962000
 148.8612477 147.2700210  70.8293451 148.2421405 146.4032373  71.9023042
 146.7358159 146.5351808  71.8277451 146.1180844 145.7340000  70.6790000
 144.5720000 145.7340000  70.6790000 143.9646962 147.1607263  70.6790000
 144.4625752 148.0872788  69.5664628 143.9078467 149.5007891  69.7890727
 144.4153630 150.4642987  68.7210697 143.8634345 151.8754171  68.9418251
 144.3719850 152.8156350  67.8466482 143.8252930 154.2307717  68.0237523
 144.3378685 155.1481607  66.9258112 144.0485855 145.0841111  72.0260708
 144.3674433 145.9020878  73.2704143 143.8253105 145.2624234  74.5448002
 144.2533195 146.1263543  75.7249314 143.7370424 145.6050436  77.0595243
 144.2249724 146.5188103  78.1832741 143.7355094 146.0400682  79.5404483
 144.2233657 146.9510515  80.6543876 144.0171881 144.8633906  69.5126574
 144.3707005 143.3775280  69.4024780 143.9769989 142.4428091  70.5509994
 142.4689551 142.4581187  70.8059279 141.7944240 141.8082166  69.6154070
 140.2860011 141.8789084  69.6240254 139.8058935 141.1833068  68.3525470
 138.2978128 141.1800083  68.2604067 150.5170000 141.4810000  67.6110000
 150.4400455 141.1103397  67.6186543 150.3575611 140.7784972  69.3585043
 152.7239754 148.7156320  70.9678291 152.8641727 147.3122427  69.9024485
 150.6169720 147.8416836  68.9250912 150.4778237 149.2284455  70.0048742
 150.6232239 147.7188512  71.9832884 150.7884698 146.3167144  70.9169043
 148.6043187 146.8847845  69.8425598 148.4478951 148.2880287  70.9003450
 148.5762658 146.7412563  72.8885970 148.5563866 145.3577500  71.7985358
 146.4467068 147.5909578  71.7825596 146.4236052 146.1933389  72.7948530
 146.4383425 144.6909625  70.7283618 146.4323881 146.1364737  69.7112644
 144.2112357 147.6296140  71.6214736 142.8763203 147.0466983  70.6252458
 144.1420002 147.7347926  68.5804638 145.5557742 148.1435952  69.5579588
 144.2119731 149.8605757  70.7801851 142.8115120 149.4712478  69.7766421
 144.1209548 150.1027877  67.7312164 145.5115354 150.4947619  68.7455471
 144.1690479 152.2441915  69.9155017 142.7667292 151.8507877  68.9262742
 144.0755892 152.4288654  66.8653420 145.4680986 152.8402493  67.8683350
 144.1257766 154.6297647  68.9997785 142.7300217 154.2143078  68.0003739
 145.4309208 155.2114951  66.9463196 143.9350697 156.1568999  67.0543585
 144.0348333 154.7838719  65.9383785 144.5030542 144.0929619  72.1071353
 142.9606585 144.9735741  71.9167896 143.9136181 146.8940562  73.2141875
 145.4488946 146.0327973  73.3662741 144.2107371 144.2400534  74.6580741
 142.7304861 145.1980040  74.4975076 143.8905385 147.1513520  75.5754737
 145.3495863 146.1774758  75.7551921 144.0986746 144.5808178  77.2258960
 142.6439449 145.5731222  77.0498867 143.8701845 147.5422743  78.0046315
 145.3204190 146.5548191  78.1801142 144.0897463 145.0191405  79.7281609
 142.6380939 146.0083802  79.5546289 145.3183060 146.9836533  80.6811465
 143.8699238 146.5902630  81.6252081 143.8537895 147.9724462  80.5145654
 144.4300187 145.2942503  68.5963470 142.9319227 145.0152412  69.4959758
 145.4087693 143.2309571  69.1002213 143.8830396 143.0249919  68.4878611
 144.5420450 142.6357473  71.4658266 144.2797210 141.4201249  70.2824306
 142.0945027 143.4814618  70.9509114 142.2378803 141.9126479  71.7274419
 142.1243367 140.7631193  69.5597990 142.1139557 142.2867440  68.6877341
 139.9612828 142.9290481  69.6263643 139.8824417 141.3999961  70.5187257
 140.1771578 140.1516438  68.3353392 140.2227045 141.6841868  67.4697974
 137.8638941 140.6821213  69.1315216 137.9831443 140.6480585  67.3595859
 137.9161053 142.2043538  68.2123582 152.4480000 138.4140000  63.0000000
 142.0330000 150.3780000  72.2970000 148.3008435 152.8812258  73.2358018
 146.7716208 152.8903423  73.2358476 146.2069748 151.4683454  73.2349514
 144.6787844 151.4749019  73.2343803 144.1072430 150.0750000  73.2340000
 142.7530000 150.0750000  73.2340000 144.7574269 149.0427992  73.2334242
 141.8460000 150.9790000  70.4390000 141.4749627 150.9786082  71.5724083
 141.4719482 150.3626945  73.2364991 148.6700424 152.3468952  74.1192020
 148.6707372 152.3459623  72.3542715 146.4082267 153.4299011  72.3534328
 146.4071634 153.4299044  74.1183625 146.5731151 150.9244740  74.1139224
 146.5730361 150.9259952  72.3537225 144.3115586 151.9933983  72.3421832
 144.3117875 151.9928719  74.1276810 142.3607631 150.9683881  73.2340000
 150.9790000 141.2130000  86.5410000 152.4287774 148.3142005  87.9671438
 150.9196515 148.2287848  87.8802115 150.3599757 147.3256163  88.9712000
 148.8612477 147.2700210  88.8043451 148.2421405 146.4032373  89.8773042
 146.7358159 146.5351808  89.8027451 146.1180844 145.7340000  88.6540000
 144.5720000 145.7340000  88.6540000 143.9646962 147.1607263  88.6540000
 144.4625752 148.0872788  87.5414628 143.9078467 149.5007891  87.7640727
 144.4153630 150.4642987  86.6960697 143.8634345 151.8754171  86.9168251
 144.3719850 152.8156350  85.8216482 143.8252930 154.2307717  85.9987523
 144.3378685 155.1481607  84.9008112 144.0485855 145.0841111  90.0010708
 144.3674433 145.9020878  91.2454143 143.8253105 145.2624234  92.5198002
 144.2533195 146.1263543  93.6999314 143.7370424 145.6050436  95.0345243
 144.2249724 146.5188103  96.1582741 143.7355094 146.0400682  97.5154483
 144.2233657 146.9510515  98.6293876 144.0171881 144.8633906  87.4876574
 144.3707005 143.3775280  87.3774780 143.9769989 142.4428091  88.5259994
 142.4689551 142.4581187  88.7809279 141.7944240 141.8082166  87.5904070
 140.2860011 141.8789084  87.5990254 139.8058935 141.1833068  86.3275470
 138.2978128 141.1800083  86.2354067 150.5170000 141.4810000  85.5860000
 150.4400455 141.1103397  85.5936543 150.3575611 140.7784972  87.3335043
 152.7239754 148.7156320  88.9428291 152.8641727 147.3122427  87.8774485
 150.6169720 147.8416836  86.9000912 150.4778237 149.2284455  87.9798742
 150.6232239 147.7188512  89.9582884 150.7884698 146.3167144  88.8919043
 148.6043187 146.8847845  87.8175598 148.4478951 148.2880287  88.8753450
 148.5762658 146.7412563  90.8635970 148.5563866 145.3577500  89.7735358
 146.4467068 147.5909578  89.7575596 146.4236052 146.1933389  90.7698530
 146.4383425 144.6909625  88.7033618 146.4323881 146.1364737  87.6862644
 144.2112357 147.6296140  89.5964736 142.8763203 147.0466983  88.6002458
 144.1420002 147.7347926  86.5554638 145.5557742 148.1435952  87.5329588
 144.2119731 149.8605757  88.7551851 142.8115120 149.4712478  87.7516421
 144.1209548 150.1027877  85.7062164 145.5115354 150.4947619  86.7205471
 144.1690479 152.2441915  87.8905017 142.7667292 151.8507877  86.9012742
 144.0755892 152.4288654  84.8403420 145.4680986 152.8402493  85.8433350
 144.1257766 154.6297647  86.9747785 142.7300217 154.2143078  85.9753739
 145.4309208 155.2114951  84.9213196 143.9350697 156.1568999  85.0293585
 144.0348333 154.7838719  83.9133785 144.5030542 144.0929619  90.0821353
 142.9606585 144.9735741  89.8917896 143.9136181 146.8940562  91.1891875
 145.4488946 146.0327973  91.3412741 144.2107371 144.2400534  92.6330741
 142.7304861 145.1980040  92.4725076 143.8905385 147.1513520  93.5504737
 145.3495863 146.1774758  93.7301921 144.0986746 144.5808178  95.2008960
 142.6439449 145.5731222  95.0248867 143.8701845 147.5422743  95.9796315
 145.3204190 146.5548191  96.1551142 144.0897463 145.0191405  97.7031609
 142.6380939 146.0083802  97.5296289 145.3183060 146.9836533  98.6561465
 143.8699238 146.5902630  99.6002081 143.8537895 147.9724462  98.4895654
 144.4300187 145.2942503  86.5713470 142.9319227 145.0152412  87.4709758
 145.4087693 143.2309571  87.0752213 143.8830396 143.0249919  86.4628611
 144.5420450 142.6357473  89.4408266 144.2797210 141.4201249  88.2574306
 142.0945027 143.4814618  88.9259114 142.2378803 141.9126479  89.7024419
 142.1243367 140.7631193  87.5347990 142.1139557 142.2867440  86.6627341
 139.9612828 142.9290481  87.6013643 139.8824417 141.3999961  88.4937257
 140.1771578 140.1516438  86.3103392 140.2227045 141.6841868  85.4447974
 137.8638941 140.6821213  87.1065216 137.9831443 140.6480585  85.3345859
 137.9161053 142.2043538  86.1873582 152.4480000 138.4140000  80.9750000
 142.0330000 150.3780000  90.2720000 148.3008435 152.8812258  91.2108018
 146.7716208 152.8903423  91.2108476 146.2069748 151.4683454  91.2099514
 144.6787844 151.4749019  91.2093803 144.1072430 150.0750000  91.2090000
 142.7530000 150.0750000  91.2090000 144.7574269 149.0427992  91.2084242
 141.8460000 150.9790000  88.4140000 141.4749627 150.9786082  89.5474083
 141.4719482 150.3626945  91.2114991 148.6700424 152.3468952  92.0942020
 148.6707372 152.3459623  90.3292715 146.4082267 153.4299011  90.3284328
 146.4071634 153.4299044  92.0933625 146.5731151 150.9244740  92.0889224
 146.5730361 150.9259952  90.3287225 144.3115586 151.9933983  90.3171832
 144.3117875 151.9928719  92.1026810 142.3607631 150.9683881  91.2090000
 150.9790000 141.2130000 104.5160000 152.4287774 148.3142005 105.9421438
 150.9196515 148.2287848 105.8552115 150.3599757 147.3256163 106.9462000
 148.8612477 147.2700210 106.7793451 148.2421405 146.4032373 107.8523042
 146.7358159 146.5351808 107.7777451 146.1180844 145.7340000 106.6290000
 144.5720000 145.7340000 106.6290000 143.9646962 147.1607263 106.6290000
 144.4625752 148.0872788 105.5164628 143.9078467 149.5007891 105.7390727
 144.4153630 150.4642987 104.6710697 143.8634345 151.8754171 104.8918251
 144.3719850 152.8156350 103.7966482 143.8252930 154.2307717 103.9737523
 144.3378685 155.1481607 102.8758112 144.0485855 145.0841111 107.9760708
 144.3674433 145.9020878 109.2204143 143.8253105 145.2624234 110.4948002
 144.2533195 146.1263543 111.6749314 143.7370424 145.6050436 113.0095243
 144.2249724 146.5188103 114.1332741 143.7355094 146.0400682 115.4904483
 144.2233657 146.9510515 116.6043876 144.0171881 144.8633906 105.4626574
 144.3707005 143.3775280 105.3524780 143.9769989 142.4428091 106.5009994
 142.4689551 142.4581187 106.7559279 141.7944240 141.8082166 105.5654070
 140.2860011 141.8789084 105.5740254 139.8058935 141.1833068 104.3025470
 138.2978128 141.1800083 104.2104067 150.5170000 141.4810000 103.5610000
 150.4400455 141.1103397 103.5686543 150.3575611 140.7784972 105.3085043
 152.7239754 148.7156320 106.9178291 152.8641727 147.3122427 105.8524485
 150.6169720 147.8416836 104.8750912 150.4778237 149.2284455 105.9548742
 150.6232239 147.7188512 107.9332884 150.7884698 146.3167144 106.8669043
 148.6043187 146.8847845 105.7925598 148.4478951 148.2880287 106.8503450
 148.5762658 146.7412563 108.8385970 148.5563866 145.3577500 107.7485358
 146.4467068 147.5909578 107.7325596 146.4236052 146.1933389 108.7448530
 146.4383425 144.6909625 106.6783618 146.4323881 146.1364737 105.6612644
 144.2112357 147.6296140 107.5714736 142.8763203 147.0466983 106.5752458
 144.1420002 147.7347926 104.5304638 145.5557742 148.1435952 105.5079588
 144.2119731 149.8605757 106.7301851 142.8115120 149.4712478 105.7266421
 144.1209548 150.1027877 103.6812164 145.5115354 150.4947619 104.6955471
 144.1690479 152.2441915 105.8655017 142.7667292 151.8507877 104.8762742
 144.0755892 152.4288654 102.8153420 145.4680986 152.8402493 103.8183350
 144.1257766 154.6297647 104.9497785 142.7300217 154.2143078 103.9503739
 145.4309208 155.2114951 102.8963196 143.9350697 156.1568999 103.0043585
 144.0348333 154.7838719 101.8883785 144.5030542 144.0929619 108.0571353
 142.9606585 144.9735741 107.8667896 143.9136181 146.8940562 109.1641875
 145.4488946 146.0327973 109.3162741 144.2107371 144.2400534 110.6080741
 142.7304861 145.1980040 110.4475076 143.8905385 147.1513520 111.5254737
 145.3495863 146.1774758 111.7051921 144.0986746 144.5808178 113.1758960
 142.6439449 145.5731222 112.9998867 143.8701845 147.5422743 113.9546315
 145.3204190 146.5548191 114.1301142 144.0897463 145.0191405 115.6781609
 142.6380939 146.0083802 115.5046289 145.3183060 146.9836533 116.6311465
 143.8699238 146.5902630 117.5752081 143.8537895 147.9724462 116.4645654
 144.4300187 145.2942503 104.5463470 142.9319227 145.0152412 105.4459758
 145.4087693 143.2309571 105.0502213 143.8830396 143.0249919 104.4378611
 144.5420450 142.6357473 107.4158266 144.2797210 141.4201249 106.2324306
 142.0945027 143.4814618 106.9009114 142.2378803 141.9126479 107.6774419
 142.1243367 140.7631193 105.5097990 142.1139557 142.2867440 104.6377341
 139.9612828 142.9290481 105.5763643 139.8824417 141.3999961 106.4687257
 140.1771578 140.1516438 104.2853392 140.2227045 141.6841868 103.4197974
 137.8638941 140.6821213 105.0815216 137.9831443 140.6480585 103.3095859
 137.9161053 142.2043538 104.1623582 152.4480000 138.4140000  98.9500000
 142.0330000 150.3780000 108.2470000 148.3008435 152.8812258 109.1858018
 146.7716208 152.8903423 109.1858476 146.2069748 151.4683454 109.1849514
 144.6787844 151.4749019 109.1843803 144.1072430 150.0750000 109.1840000
 142.7530000 150.0750000 109.1840000 144.7574269 149.0427992 109.1834242
 141.8460000 150.9790000 106.3890000 141.4749627 150.9786082 107.5224083
 141.4719482 150.3626945 109.1864991 148.6700424 152.3468952 110.0692020
 148.6707372 152.3459623 108.3042715 146.4082267 153.4299011 108.3034328
 146.4071634 153.4299044 110.0683625 146.5731151 150.9244740 110.0639224
 146.5730361 150.9259952 108.3037225 144.3115586 151.9933983 108.2921832
 144.3117875 151.9928719 110.0776810 142.3607631 150.9683881 109.1840000
 150.9790000 141.2130000 122.4900000 152.4287774 148.3142005 123.9161438
 150.9196515 148.2287848 123.8292115 150.3599757 147.3256163 124.9202000
 148.8612477 147.2700210 124.7533451 148.2421405 146.4032373 125.8263042
 146.7358159 146.5351808 125.7517451 146.1180844 145.7340000 124.6030000
 144.5720000 145.7340000 124.6030000 143.9646962 147.1607263 124.6030000
 144.4625752 148.0872788 123.4904628 143.9078467 149.5007891 123.7130727
 144.4153630 150.4642987 122.6450697 143.8634345 151.8754171 122.8658251
 144.3719850 152.8156350 121.7706482 143.8252930 154.2307717 121.9477523
 144.3378685 155.1481607 120.8498112 144.0485855 145.0841111 125.9500708
 144.3674433 145.9020878 127.1944143 143.8253105 145.2624234 128.4688002
 144.2533195 146.1263543 129.6489314 143.7370424 145.6050436 130.9835243
 144.2249724 146.5188103 132.1072741 143.7355094 146.0400682 133.4644483
 144.2233657 146.9510515 134.5783876 144.0171881 144.8633906 123.4366574
 144.3707005 143.3775280 123.3264780 143.9769989 142.4428091 124.4749994
 142.4689551 142.4581187 124.7299279 141.7944240 141.8082166 123.5394070
 140.2860011 141.8789084 123.5480254 139.8058935 141.1833068 122.2765470
 138.2978128 141.1800083 122.1844067 150.5170000 141.4810000 121.5350000
 150.4400455 141.1103397 121.5426543 150.3575611 140.7784972 123.2825043
 152.7239754 148.7156320 124.8918291 152.8641727 147.3122427 123.8264485
 150.6169720 147.8416836 122.8490912 150.4778237 149.2284455 123.9288742
 150.6232239 147.7188512 125.9072884 150.7884698 146.3167144 124.8409043
 148.6043187 146.8847845 123.7665598 148.4478951 148.2880287 124.8243450
 148.5762658 146.7412563 126.8125970 148.5563866 145.3577500 125.7225358
 146.4467068 147.5909578 125.7065596 146.4236052 146.1933389 126.7188530
 146.4383425 144.6909625 124.6523618 146.4323881 146.1364737 123.6352644
 144.2112357 147.6296140 125.5454736 142.8763203 147.0466983 124.5492458
 144.1420002 147.7347926 122.5044638 145.5557742 148.1435952 123.4819588
 144.2119731 149.8605757 124.7041851 142.8115120 149.4712478 123.7006421
 144.1209548 150.1027877 121.6552164 145.5115354 150.4947619 122.6695471
 144.1690479 152.2441915 123.8395017 142.7667292 151.8507877 122.8502742
 144.0755892 152.4288654 120.7893420 145.4680986 152.8402493 121.7923350
 144.1257766 154.6297647 122.9237785 142.7300217 154.2143078 121.9243739
 145.4309208 155.2114951 120.8703196 143.9350697 156.1568999 120.9783585
 144.0348333 154.7838719 119.8623785 144.5030542 144.0929619 126.0311353
 142.9606585 144.9735741 125.8407896 143.9136181 146.8940562 127.1381875
 145.4488946 146.0327973 127.2902741 144.2107371 144.2400534 128.5820741
 142.7304861 145.1980040 128.4215076 143.8905385 147.1513520 129.4994737
 145.3495863 146.1774758 129.6791921 144.0986746 144.5808178 131.1498960
 142.6439449 145.5731222 130.9738867 143.8701845 147.5422743 131.9286315
 145.3204190 146.5548191 132.1041142 144.0897463 145.0191405 133.6521609
 142.6380939 146.0083802 133.4786289 145.3183060 146.9836533 134.6051465
 143.8699238 146.5902630 135.5492081 143.8537895 147.9724462 134.4385654
 144.4300187 145.2942503 122.5203470 142.9319227 145.0152412 123.4199758
 145.4087693 143.2309571 123.0242213 143.8830396 143.0249919 122.4118611
 144.5420450 142.6357473 125.3898266 144.2797210 141.4201249 124.2064306
 142.0945027 143.4814618 124.8749114 142.2378803 141.9126479 125.6514419
 142.1243367 140.7631193 123.4837990 142.1139557 142.2867440 122.6117341
 139.9612828 142.9290481 123.5503643 139.8824417 141.3999961 124.4427257
 140.1771578 140.1516438 122.2593392 140.2227045 141.6841868 121.3937974
 137.8638941 140.6821213 123.0555216 137.9831443 140.6480585 121.2835859
 137.9161053 142.2043538 122.1363582 152.4480000 138.4140000 116.9240000
 142.0330000 150.3780000 126.2210000 148.3008435 152.8812258 127.1598018
 146.7716208 152.8903423 127.1598476 146.2069748 151.4683454 127.1589514
 144.6787844 151.4749019 127.1583803 144.1072430 150.0750000 127.1580000
 142.7530000 150.0750000 127.1580000 144.7574269 149.0427992 127.1574242
 141.8460000 150.9790000 124.3630000 141.4749627 150.9786082 125.4964083
 141.4719482 150.3626945 127.1604991 148.6700424 152.3468952 128.0432020
 148.6707372 152.3459623 126.2782715 146.4082267 153.4299011 126.2774328
 146.4071634 153.4299044 128.0423625 146.5731151 150.9244740 128.0379224
 146.5730361 150.9259952 126.2777225 144.3115586 151.9933983 126.2661832
 144.3117875 151.9928719 128.0516810 142.3607631 150.9683881 127.1580000
 150.9790000 141.2130000 140.4650000 152.4287774 148.3142005 141.8911438
 150.9196515 148.2287848 141.8042115 150.3599757 147.3256163 142.8952000
 148.8612477 147.2700210 142.7283451 148.2421405 146.4032373 143.8013042
 146.7358159 146.5351808 143.7267451 146.1180844 145.7340000 142.5780000
 144.5720000 145.7340000 142.5780000 143.9646962 147.1607263 142.5780000
 144.4625752 148.0872788 141.4654628 143.9078467 149.5007891 141.6880727
 144.4153630 150.4642987 140.6200697 143.8634345 151.8754171 140.8408251
 144.3719850 152.8156350 139.7456482 143.8252930 154.2307717 139.9227523
 144.3378685 155.1481607 138.8248112 144.0485855 145.0841111 143.9250708
 144.3674433 145.9020878 145.1694143 143.8253105 145.2624234 146.4438002
 144.2533195 146.1263543 147.6239314 143.7370424 145.6050436 148.9585243
 144.2249724 146.5188103 150.0822741 143.7355094 146.0400682 151.4394483
 144.2233657 146.9510515 152.5533876 144.0171881 144.8633906 141.4116574
 144.3707005 143.3775280 141.3014780 143.9769989 142.4428091 142.4499994
 142.4689551 142.4581187 142.7049279 141.7944240 141.8082166 141.5144070
 140.2860011 141.8789084 141.5230254 139.8058935 141.1833068 140.2515470
 138.2978128 141.1800083 140.1594067 150.5170000 141.4810000 139.5100000
 150.4400455 141.1103397 139.5176543 150.3575611 140.7784972 141.2575043
 152.7239754 148.7156320 142.8668291 152.8641727 147.3122427 141.8014485
 150.6169720 147.8416836 140.8240912 150.4778237 149.2284455 141.9038742
 150.6232239 147.7188512 143.8822884 150.7884698 146.3167144 142.8159043
 148.6043187 146.8847845 141.7415598 148.4478951 148.2880287 142.7993450
 148.5762658 146.7412563 144.7875970 148.5563866 145.3577500 143.6975358
 146.4467068 147.5909578 143.6815596 146.4236052 146.1933389 144.6938530
 146.4383425 144.6909625 142.6273618 146.4323881 146.1364737 141.6102644
 144.2112357 147.6296140 143.5204736 142.8763203 147.0466983 142.5242458
 144.1420002 147.7347926 140.4794638 145.5557742 148.1435952 141.4569588
 144.2119731 149.8605757 142.6791851 142.8115120 149.4712478 141.6756421
 144.1209548 150.1027877 139.6302164 145.5115354 150.4947619 140.6445471
 144.1690479 152.2441915 141.8145017 142.7667292 151.8507877 140.8252742
 144.0755892 152.4288654 138.7643420 145.4680986 152.8402493 139.7673350
 144.1257766 154.6297647 140.8987785 142.7300217 154.2143078 139.8993739
 145.4309208 155.2114951 138.8453196 143.9350697 156.1568999 138.9533585
 144.0348333 154.7838719 137.8373785 144.5030542 144.0929619 144.0061353
 142.9606585 144.9735741 143.8157896 143.9136181 146.8940562 145.1131875
 145.4488946 146.0327973 145.2652741 144.2107371 144.2400534 146.5570741
 142.7304861 145.1980040 146.3965076 143.8905385 147.1513520 147.4744737
 145.3495863 146.1774758 147.6541921 144.0986746 144.5808178 149.1248960
 142.6439449 145.5731222 148.9488867 143.8701845 147.5422743 149.9036315
 145.3204190 146.5548191 150.0791142 144.0897463 145.0191405 151.6271609
 142.6380939 146.0083802 151.4536289 145.3183060 146.9836533 152.5801465
 143.8699238 146.5902630 153.5242081 143.8537895 147.9724462 152.4135654
 144.4300187 145.2942503 140.4953470 142.9319227 145.0152412 141.3949758
 145.4087693 143.2309571 140.9992213 143.8830396 143.0249919 140.3868611
 144.5420450 142.6357473 143.3648266 144.2797210 141.4201249 142.1814306
 142.0945027 143.4814618 142.8499114 142.2378803 141.9126479 143.6264419
 142.1243367 140.7631193 141.4587990 142.1139557 142.2867440 140.5867341
 139.9612828 142.9290481 141.5253643 139.8824417 141.3999961 142.4177257
 140.1771578 140.1516438 140.2343392 140.2227045 141.6841868 139.3687974
 137.8638941 140.6821213 141.0305216 137.9831443 140.6480585 139.2585859
 137.9161053 142.2043538 140.1113582 152.4480000 138.4140000 134.8990000
 142.0330000 150.3780000 144.1960000 148.3008435 152.8812258 145.1348018
 146.7716208 152.8903423 145.1348476 146.2069748 151.4683454 145.1339514
 144.6787844 151.4749019 145.1333803 144.1072430 150.0750000 145.1330000
 142.7530000 150.0750000 145.1330000 144.7574269 149.0427992 145.1324242
 141.8460000 150.9790000 142.3380000 141.4749627 150.9786082 143.4714083
 141.4719482 150.3626945 145.1354991 148.6700424 152.3468952 146.0182020
 148.6707372 152.3459623 144.2532715 146.4082267 153.4299011 144.2524328
 146.4071634 153.4299044 146.0173625 146.5731151 150.9244740 146.0129224
 146.5730361 150.9259952 144.2527225 144.3115586 151.9933983 144.2411832
 144.3117875 151.9928719 146.0266810 142.3607631 150.9683881 145.1330000
 150.9790000 141.2130000 158.4400000 152.4287774 148.3142005 159.8661438
 150.9196515 148.2287848 159.7792115 150.3599757 147.3256163 160.8702000
 148.8612477 147.2700210 160.7033451 148.2421405 146.4032373 161.7763042
 146.7358159 146.5351808 161.7017451 146.1180844 145.7340000 160.5530000
 144.5720000 145.7340000 160.5530000 143.9646962 147.1607263 160.5530000
 144.4625752 148.0872788 159.4404628 143.9078467 149.5007891 159.6630727
 144.4153630 150.4642987 158.5950697 143.8634345 151.8754171 158.8158251
 144.3719850 152.8156350 157.7206482 143.8252930 154.2307717 157.8977523
 144.3378685 155.1481607 156.7998112 144.0485855 145.0841111 161.9000708
 144.3674433 145.9020878 163.1444143 143.8253105 145.2624234 164.4188002
 144.2533195 146.1263543 165.5989314 143.7370424 145.6050436 166.9335243
 144.2249724 146.5188103 168.0572741 143.7355094 146.0400682 169.4144483
 144.2233657 146.9510515 170.5283876 144.0171881 144.8633906 159.3866574
 144.3707005 143.3775280 159.2764780 143.9769989 142.4428091 160.4249994
 142.4689551 142.4581187 160.6799279 141.7944240 141.8082166 159.4894070
 140.2860011 141.8789084 159.4980254 139.8058935 141.1833068 158.2265470
 138.2978128 141.1800083 158.1344067 150.5170000 141.4810000 157.4850000
 150.4400455 141.1103397 157.4926543 150.3575611 140.7784972 159.2325043
 152.7239754 148.7156320 160.8418291 152.8641727 147.3122427 159.7764485
 150.6169720 147.8416836 158.7990912 150.4778237 149.2284455 159.8788742
 150.6232239 147.7188512 161.8572884 150.7884698 146.3167144 160.7909043
 148.6043187 146.8847845 159.7165598 148.4478951 148.2880287 160.7743450
 148.5762658 146.7412563 162.7625970 148.5563866 145.3577500 161.6725358
 146.4467068 147.5909578 161.6565596 146.4236052 146.1933389 162.6688530
 146.4383425 144.6909625 160.6023618 146.4323881 146.1364737 159.5852644
 144.2112357 147.6296140 161.4954736 142.8763203 147.0466983 160.4992458
 144.1420002 147.7347926 158.4544638 145.5557742 148.1435952 159.4319588
 144.2119731 149.8605757 160.6541851 142.8115120 149.4712478 159.6506421
 144.1209548 150.1027877 157.6052164 145.5115354 150.4947619 158.6195471
 144.1690479 152.2441915 159.7895017 142.7667292 151.8507877 158.8002742
 144.0755892 152.4288654 156.7393420 145.4680986 152.8402493 157.7423350
 144.1257766 154.6297647 158.8737785 142.7300217 154.2143078 157.8743739
 145.4309208 155.2114951 156.8203196 143.9350697 156.1568999 156.9283585
 144.0348333 154.7838719 155.8123785 144.5030542 144.0929619 161.9811353
 142.9606585 144.9735741 161.7907896 143.9136181 146.8940562 163.0881875
 145.4488946 146.0327973 163.2402741 144.2107371 144.2400534 164.5320741
 142.7304861 145.1980040 164.3715076 143.8905385 147.1513520 165.4494737
 145.3495863 146.1774758 165.6291921 144.0986746 144.5808178 167.0998960
 142.6439449 145.5731222 166.9238867 143.8701845 147.5422743 167.8786315
 145.3204190 146.5548191 168.0541142 144.0897463 145.0191405 169.6021609
 142.6380939 146.0083802 169.4286289 145.3183060 146.9836533 170.5551465
 143.8699238 146.5902630 171.4992081 143.8537895 147.9724462 170.3885654
 144.4300187 145.2942503 158.4703470 142.9319227 145.0152412 159.3699758
 145.4087693 143.2309571 158.9742213 143.8830396 143.0249919 158.3618611
 144.5420450 142.6357473 161.3398266 144.2797210 141.4201249 160.1564306
 142.0945027 143.4814618 160.8249114 142.2378803 141.9126479 161.6014419
 142.1243367 140.7631193 159.4337990 142.1139557 142.2867440 158.5617341
 139.9612828 142.9290481 159.5003643 139.8824417 141.3999961 160.3927257
 140.1771578 140.1516438 158.2093392 140.2227045 141.6841868 157.3437974
 137.8638941 140.6821213 159.0055216 137.9831443 140.6480585 157.2335859
 137.9161053 142.2043538 158.0863582 152.4480000 138.4140000 152.8740000
 142.0330000 150.3780000 162.1710000 148.3008435 152.8812258 163.1098018
 146.7716208 152.8903423 163.1098476 146.2069748 151.4683454 163.1089514
 144.6787844 151.4749019 163.1083803 144.1072430 150.0750000 163.1080000
 142.7530000 150.0750000 163.1080000 144.7574269 149.0427992 163.1074242
 141.8460000 150.9790000 160.3130000 141.4749627 150.9786082 161.4464083
 141.4719482 150.3626945 163.1104991 148.6700424 152.3468952 163.9932020
 148.6707372 152.3459623 162.2282715 146.4082267 153.4299011 162.2274328
 146.4071634 153.4299044 163.9923625 146.5731151 150.9244740 163.9879224
 146.5730361 150.9259952 162.2277225 144.3115586 151.9933983 162.2161832
 144.3117875 151.9928719 164.0016810 142.3607631 150.9683881 163.1080000
 150.9790000 141.2130000 176.4150000 152.4287774 148.3142005 177.8411438
 150.9196515 148.2287848 177.7542115 150.3599757 147.3256163 178.8452000
 148.8612477 147.2700210 178.6783451 148.2421405 146.4032373 179.7513042
 146.7358159 146.5351808 179.6767451 146.1180844 145.7340000 178.5280000
 144.5720000 145.7340000 178.5280000 143.9646962 147.1607263 178.5280000
 144.4625752 148.0872788 177.4154628 143.9078467 149.5007891 177.6380727
 144.4153630 150.4642987 176.5700697 143.8634345 151.8754171 176.7908251
 144.3719850 152.8156350 175.6956482 143.8252930 154.2307717 175.8727523
 144.3378685 155.1481607 174.7748112 144.0485855 145.0841111 179.8750708
 144.3674433 145.9020878 181.1194143 143.8253105 145.2624234 182.3938002
 144.2533195 146.1263543 183.5739314 143.7370424 145.6050436 184.9085243
 144.2249724 146.5188103 186.0322741 143.7355094 146.0400682 187.3894483
 144.2233657 146.9510515 188.5033876 144.0171881 144.8633906 177.3616574
 144.3707005 143.3775280 177.2514780 143.9769989 142.4428091 178.3999994
 142.4689551 142.4581187 178.6549279 141.7944240 141.8082166 177.4644070
 140.2860011 141.8789084 177.4730254 139.8058935 141.1833068 176.2015470
 138.2978128 141.1800083 176.1094067 150.5170000 141.4810000 175.4600000
 150.4400455 141.1103397 175.4676543 150.3575611 140.7784972 177.2075043
 152.7239754 148.7156320 178.8168291 152.8641727 147.3122427 177.7514485
 150.6169720 147.8416836 176.7740912 150.4778237 149.2284455 177.8538742
 150.6232239 147.7188512 179.8322884 150.7884698 146.3167144 178.7659043
 148.6043187 146.8847845 177.6915598 148.4478951 148.2880287 178.7493450
 148.5762658 146.7412563 180.7375970 148.5563866 145.3577500 179.6475358
 146.4467068 147.5909578 179.6315596 146.4236052 146.1933389 180.6438530
 146.4383425 144.6909625 178.5773618 146.4323881 146.1364737 177.5602644
 144.2112357 147.6296140 179.4704736 142.8763203 147.0466983 178.4742458
 144.1420002 147.7347926 176.4294638 145.5557742 148.1435952 177.4069588
 144.2119731 149.8605757 178.6291851 142.8115120 149.4712478 177.6256421
 144.1209548 150.1027877 175.5802164 145.5115354 150.4947619 176.5945471
 144.1690479 152.2441915 177.7645017 142.7667292 151.8507877 176.7752742
 144.0755892 152.4288654 174.7143420 145.4680986 152.8402493 175.7173350
 144.1257766 154.6297647 176.8487785 142.7300217 154.2143078 175.8493739
 145.4309208 155.2114951 174.7953196 143.9350697 156.1568999 174.9033585
 144.0348333 154.7838719 173.7873785 144.5030542 144.0929619 179.9561353
 142.9606585 144.9735741 179.7657896 143.9136181 146.8940562 181.0631875
 145.4488946 146.0327973 181.2152741 144.2107371 144.2400534 182.5070741
 142.7304861 145.1980040 182.3465076 143.8905385 147.1513520 183.4244737
 145.3495863 146.1774758 183.6041921 144.0986746 144.5808178 185.0748960
 142.6439449 145.5731222 184.8988867 143.8701845 147.5422743 185.8536315
 145.3204190 146.5548191 186.0291142 144.0897463 145.0191405 187.5771609
 142.6380939 146.0083802 187.4036289 145.3183060 146.9836533 188.5301465
 143.8699238 146.5902630 189.4742081 143.8537895 147.9724462 188.3635654
 144.4300187 145.2942503 176.4453470 142.9319227 145.0152412 177.3449758
 145.4087693 143.2309571 176.9492213 143.8830396 143.0249919 176.3368611
 144.5420450 142.6357473 179.3148266 144.2797210 141.4201249 178.1314306
 142.0945027 143.4814618 178.7999114 142.2378803 141.9126479 179.5764419
 142.1243367 140.7631193 177.4087990 142.1139557 142.2867440 176.5367341
 139.9612828 142.9290481 177.4753643 139.8824417 141.3999961 178.3677257
 140.1771578 140.1516438 176.1843392 140.2227045 141.6841868 175.3187974
 137.8638941 140.6821213 176.9805216 137.9831443 140.6480585 175.2085859
 137.9161053 142.2043538 176.0613582 152.4480000 138.4140000 170.8490000
 142.0330000 150.3780000 180.1460000 148.3008435 152.8812258 181.0848018
 146.7716208 152.8903423 181.0848476 146.2069748 151.4683454 181.0839514
 144.6787844 151.4749019 181.0833803 144.1072430 150.0750000 181.0830000
 142.7530000 150.0750000 181.0830000 144.7574269 149.0427992 181.0824242
 141.8460000 150.9790000 178.2880000 141.4749627 150.9786082 179.4214083
 141.4719482 150.3626945 181.0854991 148.6700424 152.3468952 181.9682020
 148.6707372 152.3459623 180.2032715 146.4082267 153.4299011 180.2024328
 146.4071634 153.4299044 181.9673625 146.5731151 150.9244740 181.9629224
 146.5730361 150.9259952 180.2027225 144.3115586 151.9933983 180.1911832
 144.3117875 151.9928719 181.9766810 142.3607631 150.9683881 181.0830000
 150.9790000 159.8170000  68.5660000 152.4287774 166.9182005  69.9921438
 150.9196515 166.8327848  69.9052115 150.3599757 165.9296163  70.9962000
 148.8612477 165.8740210  70.8293451 148.2421405 165.0072373  71.9023042
 146.7358159 165.1391808  71.8277451 146.1180844 164.3380000  70.6790000
 144.5720000 164.3380000  70.6790000 143.9646962 165.7647263  70.6790000
 144.4625752 166.6912788  69.5664628 143.9078467 168.1047891  69.7890727
 144.4153630 169.0682987  68.7210697 143.8634345 170.4794171  68.9418251
 144.3719850 171.4196350  67.8466482 143.8252930 172.8347717  68.0237523
 144.3378685 173.7521607  66.9258112 144.0485855 163.6881111  72.0260708
 144.3674433 164.5060878  73.2704143 143.8253105 163.8664234  74.5448002
 144.2533195 164.7303543  75.7249314 143.7370424 164.2090436  77.0595243
 144.2249724 165.1228103  78.1832741 143.7355094 164.6440682  79.5404483
 144.2233657 165.5550515  80.6543876 144.0171881 163.4673906  69.5126574
 144.3707005 161.9815280  69.4024780 143.9769989 161.0468091  70.5509994
 142.4689551 161.0621187  70.8059279 141.7944240 160.4122166  69.6154070
 140.2860011 160.4829084  69.6240254 139.8058935 159.7873068  68.3525470
 138.2978128 159.7840083  68.2604067 150.5170000 160.0850000  67.6110000
 150.4400455 159.7143397  67.6186543 150.3575611 159.3824972  69.3585043
 152.7239754 167.3196320  70.9678291 152.8641727 165.9162427  69.9024485
 150.6169720 166.4456836  68.9250912 150.4778237 167.8324455  70.0048742
 150.6232239 166.3228512  71.9832884 150.7884698 164.9207144  70.9169043
 148.6043187 165.4887845  69.8425598 148.4478951 166.8920287  70.9003450
 148.5762658 165.3452563  72.8885970 148.5563866 163.9617500  71.7985358
 146.4467068 166.1949578  71.7825596 146.4236052 164.7973389  72.7948530
 146.4383425 163.2949625  70.7283618 146.4323881 164.7404737  69.7112644
 144.2112357 166.2336140  71.6214736 142.8763203 165.6506983  70.6252458
 144.1420002 166.3387926  68.5804638 145.5557742 166.7475952  69.5579588
 144.2119731 168.4645757  70.7801851 142.8115120 168.0752478  69.7766421
 144.1209548 168.7067877  67.7312164 145.5115354 169.0987619  68.7455471
 144.1690479 170.8481915  69.9155017 142.7667292 170.4547877  68.9262742
 144.0755892 171.0328654  66.8653420 145.4680986 171.4442493  67.8683350
 144.1257766 173.2337647  68.9997785 142.7300217 172.8183078  68.0003739
 145.4309208 173.8154951  66.9463196 143.9350697 174.7608999  67.0543585
 144.0348333 173.3878719  65.9383785 144.5030542 162.6969619  72.1071353
 142.9606585 163.5775741  71.9167896 143.9136181 165.4980562  73.2141875
 145.4488946 164.6367973  73.3662741 144.2107371 162.8440534  74.6580741
 142.7304861 163.8020040  74.4975076 143.8905385 165.7553520  75.5754737
 145.3495863 164.7814758  75.7551921 144.0986746 163.1848178  77.2258960
 142.6439449 164.1771222  77.0498867 143.8701845 166.1462743  78.0046315
 145.3204190 165.1588191  78.1801142 144.0897463 163.6231405  79.7281609
 142.6380939 164.6123802  79.5546289 145.3183060 165.5876533  80.6811465
 143.8699238 165.1942630  81.6252081 143.8537895 166.5764462  80.5145654
 144.4300187 163.8982503  68.5963470 142.9319227 163.6192412  69.4959758
 145.4087693 161.8349571  69.1002213 143.8830396 161.6289919  68.4878611
 144.5420450 161.2397473  71.4658266 144.2797210 160.0241249  70.2824306
 142.0945027 162.0854618  70.9509114 142.2378803 160.5166479  71.7274419
 142.1243367 159.3671193  69.5597990 142.1139557 160.8907440  68.6877341
 139.9612828 161.5330481  69.6263643 139.8824417 160.0039961  70.5187257
 140.1771578 158.7556438  68.3353392 140.2227045 160.2881868  67.4697974
 137.8638941 159.2861213  69.1315216 137.9831443 159.2520585  67.3595859
 137.9161053 160.8083538  68.2123582 152.4480000 157.0180000  63.0000000
 142.0330000 168.9820000  72.2970000 148.3008435 171.4852258  73.2358018
 146.7716208 171.4943423  73.2358476 146.2069748 170.0723454  73.2349514
 144.6787844 170.0789019  73.2343803 144.1072430 168.6790000  73.2340000
 142.7530000 168.6790000  73.2340000 144.7574269 167.6467992  73.2334242
 141.8460000 169.5830000  70.4390000 141.4749627 169.5826082  71.5724083
 141.4719482 168.9666945  73.2364991 148.6700424 170.9508952  74.1192020
 148.6707372 170.9499623  72.3542715 146.4082267 172.0339011  72.3534328
 146.4071634 172.0339044  74.1183625 146.5731151 169.5284740  74.1139224
 146.5730361 169.5299952  72.3537225 144.3115586 170.5973983  72.3421832
 144.3117875 170.5968719  74.1276810 142.3607631 169.5723881  73.2340000
 150.9790000 159.8170000  86.5410000 152.4287774 166.9182005  87.9671438
 150.9196515 166.8327848  87.8802115 150.3599757 165.9296163  88.9712000
 148.8612477 165.8740210  88.8043451 148.2421405 165.0072373  89.8773042
 146.7358159 165.1391808  89.8027451 146.1180844 164.3380000  88.6540000
 144.5720000 164.3380000  88.6540000 143.9646962 165.7647263  88.6540000
 144.4625752 166.6912788  87.5414628 143.9078467 168.1047891  87.7640727
 144.4153630 169.0682987  86.6960697 143.8634345 170.4794171  86.9168251
 144.3719850 171.4196350  85.8216482 143.8252930 172.8347717  85.9987523
 144.3378685 173.7521607  84.9008112 144.0485855 163.6881111  90.0010708
 144.3674433 164.5060878  91.2454143 143.8253105 163.8664234  92.5198002
 144.2533195 164.7303543  93.6999314 143.7370424 164.2090436  95.0345243
 144.2249724 165.1228103  96.1582741 143.7355094 164.6440682  97.5154483
 144.2233657 165.5550515  98.6293876 144.0171881 163.4673906  87.4876574
 144.3707005 161.9815280  87.3774780 143.9769989 161.0468091  88.5259994
 142.4689551 161.0621187  88.7809279 141.7944240 160.4122166  87.5904070
 140.2860011 160.4829084  87.5990254 139.8058935 159.7873068  86.3275470
 138.2978128 159.7840083  86.2354067 150.5170000 160.0850000  85.5860000
 150.4400455 159.7143397  85.5936543 150.3575611 159.3824972  87.3335043
 152.7239754 167.3196320  88.9428291 152.8641727 165.9162427  87.8774485
 150.6169720 166.4456836  86.9000912 150.4778237 167.8324455  87.9798742
 150.6232239 166.3228512  89.9582884 150.7884698 164.9207144  88.8919043
 148.6043187 165.4887845  87.8175598 148.4478951 166.8920287  88.8753450
 148.5762658 165.3452563  90.8635970 148.5563866 163.9617500  89.7735358
 146.4467068 166.1949578  89.7575596 146.4236052 164.7973389  90.7698530
 146.4383425 163.2949625  88.7033618 146.4323881 164.7404737  87.6862644
 144.2112357 166.2336140  89.5964736 142.8763203 165.6506983  88.6002458
 144.1420002 166.3387926  86.5554638 145.5557742 166.7475952  87.5329588
 144.2119731 168.4645757  88.7551851 142.8115120 168.0752478  87.7516421
 144.1209548 168.7067877  85.7062164 145.5115354 169.0987619  86.7205471
 144.1690479 170.8481915  87.8905017 142.7667292 170.4547877  86.9012742
 144.0755892 171.0328654  84.8403420 145.4680986 171.4442493  85.8433350
 144.1257766 173.2337647  86.9747785 142.7300217 172.8183078  85.9753739
 145.4309208 173.8154951  84.9213196 143.9350697 174.7608999  85.0293585
 144.0348333 173.3878719  83.9133785 144.5030542 162.6969619  90.0821353
 142.9606585 163.5775741  89.8917896 143.9136181 165.4980562  91.1891875
 145.4488946 164.6367973  91.3412741 144.2107371 162.8440534  92.6330741
 142.7304861 163.8020040  92.4725076 143.8905385 165.7553520  93.5504737
 145.3495863 164.7814758  93.7301921 144.0986746 163.1848178  95.2008960
 142.6439449 164.1771222  95.0248867 143.8701845 166.1462743  95.9796315
 145.3204190 165.1588191  96.1551142 144.0897463 163.6231405  97.7031609
 142.6380939 164.6123802  97.5296289 145.3183060 165.5876533  98.6561465
 143.8699238 165.1942630  99.6002081 143.8537895 166.5764462  98.4895654
 144.4300187 163.8982503  86.5713470 142.9319227 163.6192412  87.4709758
 145.4087693 161.8349571  87.0752213 143.8830396 161.6289919  86.4628611
 144.5420450 161.2397473  89.4408266 144.2797210 160.0241249  88.2574306
 142.0945027 162.0854618  88.9259114 142.2378803 160.5166479  89.7024419
 142.1243367 159.3671193  87.5347990 142.1139557 160.8907440  86.6627341
 139.9612828 161.5330481  87.6013643 139.8824417 160.0039961  88.4937257
 140.1771578 158.7556438  86.3103392 140.2227045 160.2881868  85.4447974
 137.8638941 159.2861213  87.1065216 137.9831443 159.2520585  85.3345859
 137.9161053 160.8083538  86.1873582 152.4480000 157.0180000  80.9750000
 142.0330000 168.9820000  90.2720000 148.3008435 171.4852258  91.2108018
 146.7716208 171.4943423  91.2108476 146.2069748 170.0723454  91.2099514
 144.6787844 170.0789019  91.2093803 144.1072430 168.6790000  91.2090000
 142.7530000 168.6790000  91.2090000 144.7574269 167.6467992  91.2084242
 141.8460000 169.5830000  88.4140000 141.4749627 169.5826082  89.5474083
 141.4719482 168.9666945  91.2114991 148.6700424 170.9508952  92.0942020
 148.6707372 170.9499623  90.3292715 146.4082267 172.0339011  90.3284328
 146.4071634 172.0339044  92.0933625 146.5731151 169.5284740  92.0889224
 146.5730361 169.5299952  90.3287225 144.3115586 170.5973983  90.3171832
 144.3117875 170.5968719  92.1026810 142.3607631 169.5723881  91.2090000
 150.9790000 159.8170000 104.5160000 152.4287774 166.9182005 105.9421438
 150.9196515 166.8327848 105.8552115 150.3599757 165.9296163 106.9462000
 148.8612477 165.8740210 106.7793451 148.2421405 165.0072373 107.8523042
 146.7358159 165.1391808 107.7777451 146.1180844 164.3380000 106.6290000
 144.5720000 164.3380000 106.6290000 143.9646962 165.7647263 106.6290000
 144.4625752 166.6912788 105.5164628 143.9078467 168.1047891 105.7390727
 144.4153630 169.0682987 104.6710697 143.8634345 170.4794171 104.8918251
 144.3719850 171.4196350 103.7966482 143.8252930 172.8347717 103.9737523
 144.3378685 173.7521607 102.8758112 144.0485855 163.6881111 107.9760708
 144.3674433 164.5060878 109.2204143 143.8253105 163.8664234 110.4948002
 144.2533195 164.7303543 111.6749314 143.7370424 164.2090436 113.0095243
 144.2249724 165.1228103 114.1332741 143.7355094 164.6440682 115.4904483
 144.2233657 165.5550515 116.6043876 144.0171881 163.4673906 105.4626574
 144.3707005 161.9815280 105.3524780 143.9769989 161.0468091 106.5009994
 142.4689551 161.0621187 106.7559279 141.7944240 160.4122166 105.5654070
 140.2860011 160.4829084 105.5740254 139.8058935 159.7873068 104.3025470
 138.2978128 159.7840083 104.2104067 150.5170000 160.0850000 103.5610000
 150.4400455 159.7143397 103.5686543 150.3575611 159.3824972 105.3085043
 152.7239754 167.3196320 106.9178291 152.8641727 165.9162427 105.8524485
 150.6169720 166.4456836 104.8750912 150.4778237 167.8324455 105.9548742
 150.6232239 166.3228512 107.9332884 150.7884698 164.9207144 106.8669043
 148.6043187 165.4887845 105.7925598 148.4478951 166.8920287 106.8503450
 148.5762658 165.3452563 108.8385970 148.5563866 163.9617500 107.7485358
 146.4467068 166.1949578 107.7325596 146.4236052 164.7973389 108.7448530
 146.4383425 163.2949625 106.6783618 146.4323881 164.7404737 105.6612644
 144.2112357 166.2336140 107.5714736 142.8763203 165.6506983 106.5752458
 144.1420002 166.3387926 104.5304638 145.5557742 166.7475952 105.5079588
 144.2119731 168.4645757 106.7301851 142.8115120 168.0752478 105.7266421
 144.1209548 168.7067877 103.6812164 145.5115354 169.0987619 104.6955471
 144.1690479 170.8481915 105.8655017 142.7667292 170.4547877 104.8762742
 144.0755892 171.0328654 102.8153420 145.4680986 171.4442493 103.8183350
 144.1257766 173.2337647 104.9497785 142.7300217 172.8183078 103.9503739
 145.4309208 173.8154951 102.8963196 143.9350697 174.7608999 103.0043585
 144.0348333 173.3878719 101.8883785 144.5030542 162.6969619 108.0571353
 142.9606585 163.5775741 107.8667896 143.9136181 165.4980562 109.1641875
 145.4488946 164.6367973 109.3162741 144.2107371 162.8440534 110.6080741
 142.7304861 163.8020040 110.4475076 143.8905385 165.7553520 111.5254737
 145.3495863 164.7814758 111.7051921 144.0986746 163.1848178 113.1758960
 142.6439449 164.1771222 112.9998867 143.8701845 166.1462743 113.9546315
 145.3204190 165.1588191 114.1301142 144.0897463 163.6231405 115.6781609
 142.6380939 164.6123802 115.5046289 145.3183060 165.5876533 116.6311465
 143.8699238 165.1942630 117.5752081 143.8537895 166.5764462 116.4645654
 144.4300187 163.8982503 104.5463470 142.9319227 163.6192412 105.4459758
 145.4087693 161.8349571 105.0502213 143.8830396 161.6289919 104.4378611
 144.5420450 161.2397473 107.4158266 144.2797210 160.0241249 106.2324306
 142.0945027 162.0854618 106.9009114 142.2378803 160.5166479 107.6774419
 142.1243367 159.3671193 105.5097990 142.1139557 160.8907440 104.6377341
 139.9612828 161.5330481 105.5763643 139.8824417 160.0039961 106.4687257
 140.1771578 158.7556438 104.2853392 140.2227045 160.2881868 103.4197974
 137.8638941 159.2861213 105.0815216 137.9831443 159.2520585 103.3095859
 137.9161053 160.8083538 104.1623582 152.4480000 157.0180000  98.9500000
 142.0330000 168.9820000 108.2470000 148.3008435 171.4852258 109.1858018
 146.7716208 171.4943423 109.1858476 146.2069748 170.0723454 109.1849514
 144.6787844 170.0789019 109.1843803 144.1072430 168.6790000 109.1840000
 142.7530000 168.6790000 109.1840000 144.7574269 167.6467992 109.1834242
 141.8460000 169.5830000 106.3890000 141.4749627 169.5826082 107.5224083
 141.4719482 168.9666945 109.1864991 148.6700424 170.9508952 110.0692020
 148.6707372 170.9499623 108.3042715 146.4082267 172.0339011 108.3034328
 146.4071634 172.0339044 110.0683625 146.5731151 169.5284740 110.0639224
 146.5730361 169.5299952 108.3037225 144.3115586 170.5973983 108.2921832
 144.3117875 170.5968719 110.0776810 142.3607631 169.5723881 109.1840000
 150.9790000 159.8170000 122.4900000 152.4287774 166.9182005 123.9161438
 150.9196515 166.8327848 123.8292115 150.3599757 165.9296163 124.9202000
 148.8612477 165.8740210 124.7533451 148.2421405 165.0072373 125.8263042
 146.7358159 165.1391808 125.7517451 146.1180844 164.3380000 124.6030000
 144.5720000 164.3380000 124.6030000 143.9646962 165.7647263 124.6030000
 144.4625752 166.6912788 123.4904628 143.9078467 168.1047891 123.7130727
 144.4153630 169.0682987 122.6450697 143.8634345 170.4794171 122.8658251
 144.3719850 171.4196350 121.7706482 143.8252930 172.8347717 121.9477523
 144.3378685 173.7521607 120.8498112 144.0485855 163.6881111 125.9500708
 144.3674433 164.5060878 127.1944143 143.8253105 163.8664234 128.4688002
 144.2533195 164.7303543 129.6489314 143.7370424 164.2090436 130.9835243
 144.2249724 165.1228103 132.1072741 143.7355094 164.6440682 133.4644483
 144.2233657 165.5550515 134.5783876 144.0171881 163.4673906 123.4366574
 144.3707005 161.9815280 123.3264780 143.9769989 161.0468091 124.4749994
 142.4689551 161.0621187 124.7299279 141.7944240 160.4122166 123.5394070
 140.2860011 160.4829084 123.5480254 139.8058935 159.7873068 122.2765470
 138.2978128 159.7840083 122.1844067 150.5170000 160.0850000 121.5350000
 150.4400455 159.7143397 121.5426543 150.3575611 159.3824972 123.2825043
 152.7239754 167.3196320 124.8918291 152.8641727 165.9162427 123.8264485
 150.6169720 166.4456836 122.8490912 150.4778237 167.8324455 123.9288742
 150.6232239 166.3228512 125.9072884 150.7884698 164.9207144 124.8409043
 148.6043187 165.4887845 123.7665598 148.4478951 166.8920287 124.8243450
 148.5762658 165.3452563 126.8125970 148.5563866 163.9617500 125.7225358
 146.4467068 166.1949578 125.7065596 146.4236052 164.7973389 126.7188530
 146.4383425 163.2949625 124.6523618 146.4323881 164.7404737 123.6352644
 144.2112357 166.2336140 125.5454736 142.8763203 165.6506983 124.5492458
 144.1420002 166.3387926 122.5044638 145.5557742 166.7475952 123.4819588
 144.2119731 168.4645757 124.7041851 142.8115120 168.0752478 123.7006421
 144.1209548 168.7067877 121.6552164 145.5115354 169.0987619 122.6695471
 144.1690479 170.8481915 123.8395017 142.7667292 170.4547877 122.8502742
 144.0755892 171.0328654 120.7893420 145.4680986 171.4442493 121.7923350
 144.1257766 173.2337647 122.9237785 142.7300217 172.8183078 121.9243739
 145.4309208 173.8154951 120.8703196 143.9350697 174.7608999 120.9783585
 144.0348333 173.3878719 119.8623785 144.5030542 162.6969619 126.0311353
 142.9606585 163.5775741 125.8407896 143.9136181 165.4980562 127.1381875
 145.4488946 164.6367973 127.2902741 144.2107371 162.8440534 128.5820741
 142.7304861 163.8020040 128.4215076 143.8905385 165.7553520 129.4994737
 145.3495863 164.7814758 129.6791921 144.0986746 163.1848178 131.1498960
 142.6439449 164.1771222 130.9738867 143.8701845 166.1462743 131.9286315
 145.3204190 165.1588191 132.1041142 144.0897463 163.6231405 133.6521609
 142.6380939 164.6123802 133.4786289 145.3183060 165.5876533 134.6051465
 143.8699238 165.1942630 135.5492081 143.8537895 166.5764462 134.4385654
 144.4300187 163.8982503 122.5203470 142.9319227 163.6192412 123.4199758
 145.4087693 161.8349571 123.0242213 143.8830396 161.6289919 122.4118611
 144.5420450 161.2397473 125.3898266 144.2797210 160.0241249 124.2064306
 142.0945027 162.0854618 124.8749114 142.2378803 160.5166479 125.6514419
 142.1243367 159.3671193 123.4837990 142.1139557 160.8907440 122.6117341
 139.9612828 161.5330481 123.5503643 139.8824417 160.0039961 124.4427257
 140.1771578 158.7556438 122.2593392 140.2227045 160.2881868 121.3937974
 137.8638941 159.2861213 123.0555216 137.9831443 159.2520585 121.2835859
 137.9161053 160.8083538 122.1363582 152.4480000 157.0180000 116.9240000
 142.0330000 168.9820000 126.2210000 148.3008435 171.4852258 127.1598018
 146.7716208 171.4943423 127.1598476 146.2069748 170.0723454 127.1589514
 144.6787844 170.0789019 127.1583803 144.1072430 168.6790000 127.1580000
 142.7530000 168.6790000 127.1580000 144.7574269 167.6467992 127.1574242
 141.8460000 169.5830000 124.3630000 141.4749627 169.5826082 125.4964083
 141.4719482 168.9666945 127.1604991 148.6700424 170.9508952 128.0432020
 148.6707372 170.9499623 126.2782715 146.4082267 172.0339011 126.2774328
 146.4071634 172.0339044 128.0423625 146.5731151 169.5284740 128.0379224
 146.5730361 169.5299952 126.2777225 144.3115586 170.5973983 126.2661832
 144.3117875 170.5968719 128.0516810 142.3607631 169.5723881 127.1580000
 150.9790000 159.8170000 140.4650000 152.4287774 166.9182005 141.8911438
 150.9196515 166.8327848 141.8042115 150.3599757 165.9296163 142.8952000
 148.8612477 165.8740210 142.7283451 148.2421405 165.0072373 143.8013042
 146.7358159 165.1391808 143.7267451 146.1180844 164.3380000 142.5780000
 144.5720000 164.3380000 142.5780000 143.9646962 165.7647263 142.5780000
 144.4625752 166.6912788 141.4654628 143.9078467 168.1047891 141.6880727
 144.4153630 169.0682987 140.6200697 143.8634345 170.4794171 140.8408251
 144.3719850 171.4196350 139.7456482 143.8252930 172.8347717 139.9227523
 144.3378685 173.7521607 138.8248112 144.0485855 163.6881111 143.9250708
 144.3674433 164.5060878 145.1694143 143.8253105 163.8664234 146.4438002
 144.2533195 164.7303543 147.6239314 143.7370424 164.2090436 148.9585243
 144.2249724 165.1228103 150.0822741 143.7355094 164.6440682 151.4394483
 144.2233657 165.5550515 152.5533876 144.0171881 163.4673906 141.4116574
 144.3707005 161.9815280 141.3014780 143.9769989 161.0468091 142.4499994
 142.4689551 161.0621187 142.7049279 141.7944240 160.4122166 141.5144070
 140.2860011 160.4829084 141.5230254 139.8058935 159.7873068 140.2515470
 138.2978128 159.7840083 140.1594067 150.5170000 160.0850000 139.5100000
 150.4400455 159.7143397 139.5176543 150.3575611 159.3824972 141.2575043
 152.7239754 167.3196320 142.8668291 152.8641727 165.9162427 141.8014485
 150.6169720 166.4456836 140.8240912 150.4778237 167.8324455 141.9038742
 150.6232239 166.3228512 143.8822884 150.7884698 164.9207144 142.8159043
 148.6043187 165.4887845 141.7415598 148.4478951 166.8920287 142.7993450
 148.5762658 165.3452563 144.7875970 148.5563866 163.9617500 143.6975358
 146.4467068 166.1949578 143.6815596 146.4236052 164.7973389 144.6938530
 146.4383425 163.2949625 142.6273618 146.4323881 164.7404737 141.6102644
 144.2112357 166.2336140 143.5204736 142.8763203 165.6506983 142.5242458
 144.1420002 166.3387926 140.4794638 145.5557742 166.7475952 141.4569588
 144.2119731 168.4645757 142.6791851 142.8115120 168.0752478 141.6756421
 144.1209548 168.7067877 139.6302164 145.5115354 169.0987619 140.6445471
 144.1690479 170.8481915 141.8145017 142.7667292 170.4547877 140.8252742
 144.0755892 171.0328654 138.7643420 145.4680986 171.4442493 139.7673350
 144.1257766 173.2337647 140.8987785 142.7300217 172.8183078 139.8993739
 145.4309208 173.8154951 138.8453196 143.9350697 174.7608999 138.9533585
 144.0348333 173.3878719 137.8373785 144.5030542 162.6969619 144.0061353
 142.9606585 163.5775741 143.8157896 143.9136181 165.4980562 145.1131875
 145.4488946 164.6367973 145.2652741 144.2107371 162.8440534 146.5570741
 142.7304861 163.8020040 146.3965076 143.8905385 165.7553520 147.4744737
 145.3495863 164.7814758 147.6541921 144.0986746 163.1848178 149.1248960
 142.6439449 164.1771222 148.9488867 143.8701845 166.1462743 149.9036315
 145.3204190 165.1588191 150.0791142 144.0897463 163.6231405 151.6271609
 142.6380939 164.6123802 151.4536289 145.3183060 165.5876533 152.5801465
 143.8699238 165.1942630 153.5242081 143.8537895 166.5764462 152.4135654
 144.4300187 163.8982503 140.4953470 142.9319227 163.6192412 141.3949758
 145.4087693 161.8349571 140.9992213 143.8830396 161.6289919 140.3868611
 144.5420450 161.2397473 143.3648266 144.2797210 160.0241249 142.1814306
 142.0945027 162.0854618 142.8499114 142.2378803 160.5166479 143.6264419
 142.1243367 159.3671193 141.4587990 142.1139557 160.8907440 140.5867341
 139.9612828 161.5330481 141.5253643 139.8824417 160.0039961 142.4177257
 140.1771578 158.7556438 140.2343392 140.2227045 160.2881868 139.3687974
 137.8638941 159.2861213 141.0305216 137.9831443 159.2520585 139.2585859
 137.9161053 160.8083538 140.1113582 152.4480000 157.0180000 134.8990000
 142.0330000 168.9820000 144.1960000 148.3008435 171.4852258 145.1348018
 146.7716208 171.4943423 145.1348476 146.2069748 170.0723454 145.1339514
 144.6787844 170.0789019 145.1333803 144.1072430 168.6790000 145.1330000
 142.7530000 168.6790000 145.1330000 144.7574269 167.6467992 145.1324242
 141.8460000 169.5830000 142.3380000 141.4749627 169.5826082 143.4714083
 141.4719482 168.9666945 145.1354991 148.6700424 170.9508952 146.0182020
 148.6707372 170.9499623 144.2532715 146.4082267 172.0339011 144.2524328
 146.4071634 172.0339044 146.0173625 146.5731151 169.5284740 146.0129224
 146.5730361 169.5299952 144.2527225 144.3115586 170.5973983 144.2411832
 144.3117875 170.5968719 146.0266810 142.3607631 169.5723881 145.1330000
 150.9790000 159.8170000 158.4400000 152.4287774 166.9182005 159.8661438
 150.9196515 166.8327848 159.7792115 150.3599757 165.9296163 160.8702000
 148.8612477 165.8740210 160.7033451 148.2421405 165.0072373 161.7763042
 146.7358159 165.1391808 161.7017451 146.1180844 164.3380000 160.5530000
 144.5720000 164.3380000 160.5530000 143.9646962 165.7647263 160.5530000
 144.4625752 166.6912788 159.4404628 143.9078467 168.1047891 159.6630727
 144.4153630 169.0682987 158.5950697 143.8634345 170.4794171 158.8158251
 144.3719850 171.4196350 157.7206482 143.8252930 172.8347717 157.8977523
 144.3378685 173.7521607 156.7998112 144.0485855 163.6881111 161.9000708
 144.3674433 164.5060878 163.1444143 143.8253105 163.8664234 164.4188002
 144.2533195 164.7303543 165.5989314 143.7370424 164.2090436 166.9335243
 144.2249724 165.1228103 168.0572741 143.7355094 164.6440682 169.4144483
 144.2233657 165.5550515 170.5283876 144.0171881 163.4673906 159.3866574
 144.3707005 161.9815280 159.2764780 143.9769989 161.0468091 160.4249994
 142.4689551 161.0621187 160.6799279 141.7944240 160.4122166 159.4894070
 140.2860011 160.4829084 159.4980254 139.8058935 159.7873068 158.2265470
 138.2978128 159.7840083 158.1344067 150.5170000 160.0850000 157.4850000
 150.4400455 159.7143397 157.4926543 150.3575611 159.3824972 159.2325043
 152.7239754 167.3196320 160.8418291 152.8641727 165.9162427 159.7764485
 150.6169720 166.4456836 158.7990912 150.4778237 167.8324455 159.8788742
 150.6232239 166.3228512 161.8572884 150.7884698 164.9207144 160.7909043
 148.6043187 165.4887845 159.7165598 148.4478951 166.8920287 160.7743450
 148.5762658 165.3452563 162.7625970 148.5563866 163.9617500 161.6725358
 146.4467068 166.1949578 161.6565596 146.4236052 164.7973389 162.6688530
 146.4383425 163.2949625 160.6023618 146.4323881 164.7404737 159.5852644
 144.2112357 166.2336140 161.4954736 142.8763203 165.6506983 160.4992458
 144.1420002 166.3387926 158.4544638 145.5557742 166.7475952 159.4319588
 144.2119731 168.4645757 160.6541851 142.8115120 168.0752478 159.6506421
 144.1209548 168.7067877 157.6052164 145.5115354 169.0987619 158.6195471
 144.1690479 170.8481915 159.7895017 142.7667292 170.4547877 158.8002742
 144.0755892 171.0328654 156.7393420 145.4680986 171.4442493 157.7423350
 144.1257766 173.2337647 158.8737785 142.7300217 172.8183078 157.8743739
 145.4309208 173.8154951 156.8203196 143.9350697 174.7608999 156.9283585
 144.0348333 173.3878719 155.8123785 144.5030542 162.6969619 161.9811353
 142.9606585 163.5775741 161.7907896 143.9136181 165.4980562 163.0881875
 145.4488946 164.6367973 163.2402741 144.2107371 162.8440534 164.5320741
 142.7304861 163.8020040 164.3715076 143.8905385 165.7553520 165.4494737
 145.3495863 164.7814758 165.6291921 144.0986746 163.1848178 167.0998960
 142.6439449 164.1771222 166.9238867 143.8701845 166.1462743 167.8786315
 145.3204190 165.1588191 168.0541142 144.0897463 163.6231405 169.6021609
 142.6380939 164.6123802 169.4286289 145.3183060 165.5876533 170.5551465
 143.8699238 165.1942630 171.4992081 143.8537895 166.5764462 170.3885654
 144.4300187 163.8982503 158.4703470 142.9319227 163.6192412 159.3699758
 145.4087693 161.8349571 158.9742213 143.8830396 161.6289919 158.3618611
 144.5420450 161.2397473 161.3398266 144.2797210 160.0241249 160.1564306
 142.0945027 162.0854618 160.8249114 142.2378803 160.5166479 161.6014419
 142.1243367 159.3671193 159.4337990 142.1139557 160.8907440 158.5617341
 139.9612828 161.5330481 159.5003643 139.8824417 160.0039961 160.3927257
 140.1771578 158.7556438 158.2093392 140.2227045 160.2881868 157.3437974
 137.8638941 159.2861213 159.0055216 137.9831443 159.2520585 157.2335859
 137.9161053 160.8083538 158.0863582 152.4480000 157.0180000 152.8740000
 142.0330000 168.9820000 162.1710000 148.3008435 171.4852258 163.1098018
 146.7716208 171.4943423 163.1098476 146.2069748 170.0723454 163.1089514
 144.6787844 170.0789019 163.1083803 144.1072430 168.6790000 163.1080000
 142.7530000 168.6790000 163.1080000 144.7574269 167.6467992 163.1074242
 141.8460000 169.5830000 160.3130000 141.4749627 169.5826082 161.4464083
 141.4719482 168.9666945 163.1104991 148.6700424 170.9508952 163.9932020
 148.6707372 170.9499623 162.2282715 146.4082267 172.0339011 162.2274328
 146.4071634 172.0339044 163.9923625 146.5731151 169.5284740 163.9879224
 146.5730361 169.5299952 162.2277225 144.3115586 170.5973983 162.2161832
 144.3117875 170.5968719 164.0016810 142.3607631 169.5723881 163.1080000
 150.9790000 159.8170000 176.4150000 152.4287774 166.9182005 177.8411438
 150.9196515 166.8327848 177.7542115 150.3599757 165.9296163 178.8452000
 148.8612477 165.8740210 178.6783451 148.2421405 165.0072373 179.7513042
 146.7358159 165.1391808 179.6767451 146.1180844 164.3380000 178.5280000
 144.5720000 164.3380000 178.5280000 143.9646962 165.7647263 178.5280000
 144.4625752 166.6912788 177.4154628 143.9078467 168.1047891 177.6380727
 144.4153630 169.0682987 176.5700697 143.8634345 170.4794171 176.7908251
 144.3719850 171.4196350 175.6956482 143.8252930 172.8347717 175.8727523
 144.3378685 173.7521607 174.7748112 144.0485855 163.6881111 179.8750708
 144.3674433 164.5060878 181.1194143 143.8253105 163.8664234 182.3938002
 144.2533195 164.7303543 183.5739314 143.7370424 164.2090436 184.9085243
 144.2249724 165.1228103 186.0322741 143.7355094 164.6440682 187.3894483
 144.2233657 165.5550515 188.5033876 144.0171881 163.4673906 177.3616574
 144.3707005 161.9815280 177.2514780 143.9769989 161.0468091 178.3999994
 142.4689551 161.0621187 178.6549279 141.7944240 160.4122166 177.4644070
 140.2860011 160.4829084 177.4730254 139.8058935 159.7873068 176.2015470
 138.2978128 159.7840083 176.1094067 150.5170000 160.0850000 175.4600000
 150.4400455 159.7143397 175.4676543 150.3575611 159.3824972 177.2075043
 152.7239754 167.3196320 178.8168291 152.8641727 165.9162427 177.7514485
 150.6169720 166.4456836 176.7740912 150.4778237 167.8324455 177.8538742
 150.6232239 166.3228512 179.8322884 150.7884698 164.9207144 178.7659043
 148.6043187 165.4887845 177.6915598 148.4478951 166.8920287 178.7493450
 148.5762658 165.3452563 180.7375970 148.5563866 163.9617500 179.6475358
 146.4467068 166.1949578 179.6315596 146.4236052 164.7973389 180.6438530
 146.4383425 163.2949625 178.5773618 146.4323881 164.7404737 177.5602644
 144.2112357 166.2336140 179.4704736 142.8763203 165.6506983 178.4742458
 144.1420002 166.3387926 176.4294638 145.5557742 166.7475952 177.4069588
 144.2119731 168.4645757 178.6291851 142.8115120 168.0752478 177.6256421
 144.1209548 168.7067877 175.5802164 145.5115354 169.0987619 176.5945471
 144.1690479 170.8481915 177.7645017 142.7667292 170.4547877 176.7752742
 144.0755892 171.0328654 174.7143420 145.4680986 171.4442493 175.7173350
 144.1257766 173.2337647 176.8487785 142.7300217 172.8183078 175.8493739
 145.4309208 173.8154951 174.7953196 143.9350697 174.7608999 174.9033585
 144.0348333 173.3878719 173.7873785 144.5030542 162.6969619 179.9561353
 142.9606585 163.5775741 179.7657896 143.9136181 165.4980562 181.0631875
 145.4488946 164.6367973 181.2152741 144.2107371 162.8440534 182.5070741
 142.7304861 163.8020040 182.3465076 143.8905385 165.7553520 183.4244737
 145.3495863 164.7814758 183.6041921 144.0986746 163.1848178 185.0748960
 142.6439449 164.1771222 184.8988867 143.8701845 166.1462743 185.8536315
 145.3204190 165.1588191 186.0291142 144.0897463 163.6231405 187.5771609
 142.6380939 164.6123802 187.4036289 145.3183060 165.5876533 188.5301465
 143.8699238 165.1942630 189.4742081 143.8537895 166.5764462 188.3635654
 144.4300187 163.8982503 176.4453470 142.9319227 163.6192412 177.3449758
 145.4087693 161.8349571 176.9492213 143.8830396 161.6289919 176.3368611
 144.5420450 161.2397473 179.3148266 144.2797210 160.0241249 178.1314306
 142.0945027 162.0854618 178.7999114 142.2378803 160.5166479 179.5764419
 142.1243367 159.3671193 177.4087990 142.1139557 160.8907440 176.5367341
 139.9612828 161.5330481 177.4753643 139.8824417 160.0039961 178.3677257
 140.1771578 158.7556438 176.1843392 140.2227045 160.2881868 175.3187974
 137.8638941 159.2861213 176.9805216 137.9831443 159.2520585 175.2085859
 137.9161053 160.8083538 176.0613582 152.4480000 157.0180000 170.8490000
 142.0330000 168.9820000 180.1460000 148.3008435 171.4852258 181.0848018
 146.7716208 171.4943423 181.0848476 146.2069748 170.0723454 181.0839514
 144.6787844 170.0789019 181.0833803 144.1072430 168.6790000 181.0830000
 142.7530000 168.6790000 181.0830000 144.7574269 167.6467992 181.0824242
 141.8460000 169.5830000 178.2880000 141.4749627 169.5826082 179.4214083
 141.4719482 168.9666945 181.0854991 148.6700424 170.9508952 181.9682020
 148.6707372 170.9499623 180.2032715 146.4082267 172.0339011 180.2024328
 146.4071634 172.0339044 181.9673625 146.5731151 169.5284740 181.9629224
 146.5730361 169.5299952 180.2027225 144.3115586 170.5973983 180.1911832
 144.3117875 170.5968719 181.9766810 142.3607631 169.5723881 181.0830000
 150.9790000 178.4210000  68.5660000 152.4287774 185.5222005  69.9921438
 150.9196515 185.4367848  69.9052115 150.3599757 184.5336163  70.9962000
 148.8612477 184.4780210  70.8293451 148.2421405 183.6112373  71.9023042
 146.7358159 183.7431808  71.8277451 146.1180844 182.9420000  70.6790000
 144.5720000 182.9420000  70.6790000 143.9646962 184.3687263  70.6790000
 144.4625752 185.2952788  69.5664628 143.9078467 186.7087891  69.7890727
 144.4153630 187.6722987  68.7210697 143.8634345 189.0834171  68.9418251
 144.3719850 190.0236350  67.8466482 143.8252930 191.4387717  68.0237523
 144.3378685 192.3561607  66.9258112 144.0485855 182.2921111  72.0260708
 144.3674433 183.1100878  73.2704143 143.8253105 182.4704234  74.5448002
 144.2533195 183.3343543  75.7249314 143.7370424 182.8130436  77.0595243
 144.2249724 183.7268103  78.1832741 143.7355094 183.2480682  79.5404483
 144.2233657 184.1590515  80.6543876 144.0171881 182.0713906  69.5126574
 144.3707005 180.5855280  69.4024780 143.9769989 179.6508091  70.5509994
 142.4689551 179.6661187  70.8059279 141.7944240 179.0162166  69.6154070
 140.2860011 179.0869084  69.6240254 139.8058935 178.3913068  68.3525470
 138.2978128 178.3880083  68.2604067 150.5170000 178.6890000  67.6110000
 150.4400455 178.3183397  67.6186543 150.3575611 177.9864972  69.3585043
 152.7239754 185.9236320  70.9678291 152.8641727 184.5202427  69.9024485
 150.6169720 185.0496836  68.9250912 150.4778237 186.4364455  70.0048742
 150.6232239 184.9268512  71.9832884 150.7884698 183.5247144  70.9169043
 148.6043187 184.0927845  69.8425598 148.4478951 185.4960287  70.9003450
 148.5762658 183.9492563  72.8885970 148.5563866 182.5657500  71.7985358
 146.4467068 184.7989578  71.7825596 146.4236052 183.4013389  72.7948530
 146.4383425 181.8989625  70.7283618 146.4323881 183.3444737  69.7112644
 144.2112357 184.8376140  71.6214736 142.8763203 184.2546983  70.6252458
 144.1420002 184.9427926  68.5804638 145.5557742 185.3515952  69.5579588
 144.2119731 187.0685757  70.7801851 142.8115120 186.6792478  69.7766421
 144.1209548 187.3107877  67.7312164 145.5115354 187.7027619  68.7455471
 144.1690479 189.4521915  69.9155017 142.7667292 189.0587877  68.9262742
 144.0755892 189.6368654  66.8653420 145.4680986 190.0482493  67.8683350
 144.1257766 191.8377647  68.9997785 142.7300217 191.4223078  68.0003739
 145.4309208 192.4194951  66.9463196 143.9350697 193.3648999  67.0543585
 144.0348333 191.9918719  65.9383785 144.5030542 181.3009619  72.1071353
 142.9606585 182.1815741  71.9167896 143.9136181 184.1020562  73.2141875
 145.4488946 183.2407973  73.3662741 144.2107371 181.4480534  74.6580741
 142.7304861 182.4060040  74.4975076 143.8905385 184.3593520  75.5754737
 145.3495863 183.3854758  75.7551921 144.0986746 181.7888178  77.2258960
 142.6439449 182.7811222  77.0498867 143.8701845 184.7502743  78.0046315
 145.3204190 183.7628191  78.1801142 144.0897463 182.2271405  79.7281609
 142.6380939 183.2163802  79.5546289 145.3183060 184.1916533  80.6811465
 143.8699238 183.7982630  81.6252081 143.8537895 185.1804462  80.5145654
 144.4300187 182.5022503  68.5963470 142.9319227 182.2232412  69.4959758
 145.4087693 180.4389571  69.1002213 143.8830396 180.2329919  68.4878611
 144.5420450 179.8437473  71.4658266 144.2797210 178.6281249  70.2824306
 142.0945027 180.6894618  70.9509114 142.2378803 179.1206479  71.7274419
 142.1243367 177.9711193  69.5597990 142.1139557 179.4947440  68.6877341
 139.9612828 180.1370481  69.6263643 139.8824417 178.6079961  70.5187257
 140.1771578 177.3596438  68.3353392 140.2227045 178.8921868  67.4697974
 137.8638941 177.8901213  69.1315216 137.9831443 177.8560585  67.3595859
 137.9161053 179.4123538  68.2123582 152.4480000 175.6220000  63.0000000
 142.0330000 187.5860000  72.2970000 148.3008435 190.0892258  73.2358018
 146.7716208 190.0983423  73.2358476 146.2069748 188.6763454  73.2349514
 144.6787844 188.6829019  73.2343803 144.1072430 187.2830000  73.2340000
 142.7530000 187.2830000  73.2340000 144.7574269 186.2507992  73.2334242
 141.8460000 188.1870000  70.4390000 141.4749627 188.1866082  71.5724083
 141.4719482 187.5706945  73.2364991 148.6700424 189.5548952  74.1192020
 148.6707372 189.5539623  72.3542715 146.4082267 190.6379011  72.3534328
 146.4071634 190.6379044  74.1183625 146.5731151 188.1324740  74.1139224
 146.5730361 188.1339952  72.3537225 144.3115586 189.2013983  72.3421832
 144.3117875 189.2008719  74.1276810 142.3607631 188.1763881  73.2340000
 150.9790000 178.4210000  86.5410000 152.4287774 185.5222005  87.9671438
 150.9196515 185.4367848  87.8802115 150.3599757 184.5336163  88.9712000
 148.8612477 184.4780210  88.8043451 148.2421405 183.6112373  89.8773042
 146.7358159 183.7431808  89.8027451 146.1180844 182.9420000  88.6540000
 144.5720000 182.9420000  88.6540000 143.9646962 184.3687263  88.6540000
 144.4625752 185.2952788  87.5414628 143.9078467 186.7087891  87.7640727
 144.4153630 187.6722987  86.6960697 143.8634345 189.0834171  86.9168251
 144.3719850 190.0236350  85.8216482 143.8252930 191.4387717  85.9987523
 144.3378685 192.3561607  84.9008112 144.0485855 182.2921111  90.0010708
 144.3674433 183.1100878  91.2454143 143.8253105 182.4704234  92.5198002
 144.2533195 183.3343543  93.6999314 143.7370424 182.8130436  95.0345243
 144.2249724 183.7268103  96.1582741 143.7355094 183.2480682  97.5154483
 144.2233657 184.1590515  98.6293876 144.0171881 182.0713906  87.4876574
 144.3707005 180.5855280  87.3774780 143.9769989 179.6508091  88.5259994
 142.4689551 179.6661187  88.7809279 141.7944240 179.0162166  87.5904070
 140.2860011 179.0869084  87.5990254 139.8058935 178.3913068  86.3275470
 138.2978128 178.3880083  86.2354067 150.5170000 178.6890000  85.5860000
 150.4400455 178.3183397  85.5936543 150.3575611 177.9864972  87.3335043
 152.7239754 185.9236320  88.9428291 152.8641727 184.5202427  87.8774485
 150.6169720 185.0496836  86.9000912 150.4778237 186.4364455  87.9798742
 150.6232239 184.9268512  89.9582884 150.7884698 183.5247144  88.8919043
 148.6043187 184.0927845  87.8175598 148.4478951 185.4960287  88.8753450
 148.5762658 183.9492563  90.8635970 148.5563866 182.5657500  89.7735358
 146.4467068 184.7989578  89.7575596 146.4236052 183.4013389  90.7698530
 146.4383425 181.8989625  88.7033618 146.4323881 183.3444737  87.6862644
 144.2112357 184.8376140  89.5964736 142.8763203 184.2546983  88.6002458
 144.1420002 184.9427926  86.5554638 145.5557742 185.3515952  87.5329588
 144.2119731 187.0685757  88.7551851 142.8115120 186.6792478  87.7516421
 144.1209548 187.3107877  85.7062164 145.5115354 187.7027619  86.7205471
 144.1690479 189.4521915  87.8905017 142.7667292 189.0587877  86.9012742
 144.0755892 189.6368654  84.8403420 145.4680986 190.0482493  85.8433350
 144.1257766 191.8377647  86.9747785 142.7300217 191.4223078  85.9753739
 145.4309208 192.4194951  84.9213196 143.9350697 193.3648999  85.0293585
 144.0348333 191.9918719  83.9133785 144.5030542 181.3009619  90.0821353
 142.9606585 182.1815741  89.8917896 143.9136181 184.1020562  91.1891875
 145.4488946 183.2407973  91.3412741 144.2107371 181.4480534  92.6330741
 142.7304861 182.4060040  92.4725076 143.8905385 184.3593520  93.5504737
 145.3495863 183.3854758  93.7301921 144.0986746 181.7888178  95.2008960
 142.6439449 182.7811222  95.0248867 143.8701845 184.7502743  95.9796315
 145.3204190 183.7628191  96.1551142 144.0897463 182.2271405  97.7031609
 142.6380939 183.2163802  97.5296289 145.3183060 184.1916533  98.6561465
 143.8699238 183.7982630  99.6002081 143.8537895 185.1804462  98.4895654
 144.4300187 182.5022503  86.5713470 142.9319227 182.2232412  87.4709758
 145.4087693 180.4389571  87.0752213 143.8830396 180.2329919  86.4628611
 144.5420450 179.8437473  89.4408266 144.2797210 178.6281249  88.2574306
 142.0945027 180.6894618  88.9259114 142.2378803 179.1206479  89.7024419
 142.1243367 177.9711193  87.5347990 142.1139557 179.4947440  86.6627341
 139.9612828 180.1370481  87.6013643 139.8824417 178.6079961  88.4937257
 140.1771578 177.3596438  86.3103392 140.2227045 178.8921868  85.4447974
 137.8638941 177.8901213  87.1065216 137.9831443 177.8560585  85.3345859
 137.9161053 179.4123538  86.1873582 152.4480000 175.6220000  80.9750000
 142.0330000 187.5860000  90.2720000 148.3008435 190.0892258  91.2108018
 146.7716208 190.0983423  91.2108476 146.2069748 188.6763454  91.2099514
 144.6787844 188.6829019  91.2093803 144.1072430 187.2830000  91.2090000
 142.7530000 187.2830000  91.2090000 144.7574269 186.2507992  91.2084242
 141.8460000 188.1870000  88.4140000 141.4749627 188.1866082  89.5474083
 141.4719482 187.5706945  91.2114991 148.6700424 189.5548952  92.0942020
 148.6707372 189.5539623  90.3292715 146.4082267 190.6379011  90.3284328
 146.4071634 190.6379044  92.0933625 146.5731151 188.1324740  92.0889224
 146.5730361 188.1339952  90.3287225 144.3115586 189.2013983  90.3171832
 144.3117875 189.2008719  92.1026810 142.3607631 188.1763881  91.2090000
 150.9790000 178.4210000 104.5160000 152.4287774 185.5222005 105.9421438
 150.9196515 185.4367848 105.8552115 150.3599757 184.5336163 106.9462000
 148.8612477 184.4780210 106.7793451 148.2421405 183.6112373 107.8523042
 146.7358159 183.7431808 107.7777451 146.1180844 182.9420000 106.6290000
 144.5720000 182.9420000 106.6290000 143.9646962 184.3687263 106.6290000
 144.4625752 185.2952788 105.5164628 143.9078467 186.7087891 105.7390727
 144.4153630 187.6722987 104.6710697 143.8634345 189.0834171 104.8918251
 144.3719850 190.0236350 103.7966482 143.8252930 191.4387717 103.9737523
 144.3378685 192.3561607 102.8758112 144.0485855 182.2921111 107.9760708
 144.3674433 183.1100878 109.2204143 143.8253105 182.4704234 110.4948002
 144.2533195 183.3343543 111.6749314 143.7370424 182.8130436 113.0095243
 144.2249724 183.7268103 114.1332741 143.7355094 183.2480682 115.4904483
 144.2233657 184.1590515 116.6043876 144.0171881 182.0713906 105.4626574
 144.3707005 180.5855280 105.3524780 143.9769989 179.6508091 106.5009994
 142.4689551 179.6661187 106.7559279 141.7944240 179.0162166 105.5654070
 140.2860011 179.0869084 105.5740254 139.8058935 178.3913068 104.3025470
 138.2978128 178.3880083 104.2104067 150.5170000 178.6890000 103.5610000
 150.4400455 178.3183397 103.5686543 150.3575611 177.9864972 105.3085043
 152.7239754 185.9236320 106.9178291 152.8641727 184.5202427 105.8524485
 150.6169720 185.0496836 104.8750912 150.4778237 186.4364455 105.9548742
 150.6232239 184.9268512 107.9332884 150.7884698 183.5247144 106.8669043
 148.6043187 184.0927845 105.7925598 148.4478951 185.4960287 106.8503450
 148.5762658 183.9492563 108.8385970 148.5563866 182.5657500 107.7485358
 146.4467068 184.7989578 107.7325596 146.4236052 183.4013389 108.7448530
 146.4383425 181.8989625 106.6783618 146.4323881 183.3444737 105.6612644
 144.2112357 184.8376140 107.5714736 142.8763203 184.2546983 106.5752458
 144.1420002 184.9427926 104.5304638 145.5557742 185.3515952 105.5079588
 144.2119731 187.0685757 106.7301851 142.8115120 186.6792478 105.7266421
 144.1209548 187.3107877 103.6812164 145.5115354 187.7027619 104.6955471
 144.1690479 189.4521915 105.8655017 142.7667292 189.0587877 104.8762742
 144.0755892 189.6368654 102.8153420 145.4680986 190.0482493 103.8183350
 144.1257766 191.8377647 104.9497785 142.7300217 191.4223078 103.9503739
 145.4309208 192.4194951 102.8963196 143.9350697 193.3648999 103.0043585
 144.0348333 191.9918719 101.8883785 144.5030542 181.3009619 108.0571353
 142.9606585 182.1815741 107.8667896 143.9136181 184.1020562 109.1641875
 145.4488946 183.2407973 109.3162741 144.2107371 181.4480534 110.6080741
 142.7304861 182.4060040 110.4475076 143.8905385 184.3593520 111.5254737
 145.3495863 183.3854758 111.7051921 144.0986746 181.7888178 113.1758960
 142.6439449 182.7811222 112.9998867 143.8701845 184.7502743 113.9546315
 145.3204190 183.7628191 114.1301142 144.0897463 182.2271405 115.6781609
 142.6380939 183.2163802 115.5046289 145.3183060 184.1916533 116.6311465
 143.8699238 183.7982630 117.5752081 143.8537895 185.1804462 116.4645654
 144.4300187 182.5022503 104.5463470 142.9319227 182.2232412 105.4459758
 145.4087693 180.4389571 105.0502213 143.8830396 180.2329919 104.4378611
 144.5420450 179.8437473 107.4158266 144.2797210 178.6281249 106.2324306
 142.0945027 180.6894618 106.9009114 142.2378803 179.1206479 107.6774419
 142.1243367 177.9711193 105.5097990 142.1139557 179.4947440 104.6377341
 139.9612828 180.1370481 105.5763643 139.8824417 178.6079961 106.4687257
 140.1771578 177.3596438 104.2853392 140.2227045 178.8921868 103.4197974
 137.8638941 177.8901213 105.0815216 137.9831443 177.8560585 103.3095859
 137.9161053 179.4123538 104.1623582 152.4480000 175.6220000  98.9500000
 142.0330000 187.5860000 108.2470000 148.3008435 190.0892258 109.1858018
 146.7716208 190.0983423 109.1858476 146.2069748 188.6763454 109.1849514
 144.6787844 188.6829019 109.1843803 144.1072430 187.2830000 109.1840000
 142.7530000 187.2830000 109.1840000 144.7574269 186.2507992 109.1834242
 141.8460000 188.1870000 106.3890000 141.4749627 188.1866082 107.5224083
 141.4719482 187.5706945 109.1864991 148.6700424 189.5548952 110.0692020
 148.6707372 189.5539623 108.3042715 146.4082267 190.6379011 108.3034328
 146.4071634 190.6379044 110.0683625 146.5731151 188.1324740 110.0639224
 146.5730361 188.1339952 108.3037225 144.3115586 189.2013983 108.2921832
 144.3117875 189.2008719 110.0776810 142.3607631 188.1763881 109.1840000
 150.9790000 178.4210000 122.4900000 152.4287774 185.5222005 123.9161438
 150.9196515 185.4367848 123.8292115 150.3599757 184.5336163 124.9202000
 148.8612477 184.4780210 124.7533451 148.2421405 183.6112373 125.8263042
 146.7358159 183.7431808 125.7517451 146.1180844 182.9420000 124.6030000
 144.5720000 182.9420000 124.6030000 143.9646962 184.3687263 124.6030000
 144.4625752 185.2952788 123.4904628 143.9078467 186.7087891 123.7130727
 144.4153630 187.6722987 122.6450697 143.8634345 189.0834171 122.8658251
 144.3719850 190.0236350 121.7706482 143.8252930 191.4387717 121.9477523
 144.3378685 192.3561607 120.8498112 144.0485855 182.2921111 125.9500708
 144.3674433 183.1100878 127.1944143 143.8253105 182.4704234 128.4688002
 144.2533195 183.3343543 129.6489314 143.7370424 182.8130436 130.9835243
 144.2249724 183.7268103 132.1072741 143.7355094 183.2480682 133.4644483
 144.2233657 184.1590515 134.5783876 144.0171881 182.0713906 123.4366574
 144.3707005 180.5855280 123.3264780 143.9769989 179.6508091 124.4749994
 142.4689551 179.6661187 124.7299279 141.7944240 179.0162166 123.5394070
 140.2860011 179.0869084 123.5480254 139.8058935 178.3913068 122.2765470
 138.2978128 178.3880083 122.1844067 150.5170000 178.6890000 121.5350000
 150.4400455 178.3183397 121.5426543 150.3575611 177.9864972 123.2825043
 152.7239754 185.9236320 124.8918291 152.8641727 184.5202427 123.8264485
 150.6169720 185.0496836 122.8490912 150.4778237 186.4364455 123.9288742
 150.6232239 184.9268512 125.9072884 150.7884698 183.5247144 124.8409043
 148.6043187 184.0927845 123.7665598 148.4478951 185.4960287 124.8243450
 148.5762658 183.9492563 126.8125970 148.5563866 182.5657500 125.7225358
 146.4467068 184.7989578 125.7065596 146.4236052 183.4013389 126.7188530
 146.4383425 181.8989625 124.6523618 146.4323881 183.3444737 123.6352644
 144.2112357 184.8376140 125.5454736 142.8763203 184.2546983 124.5492458
 144.1420002 184.9427926 122.5044638 145.5557742 185.3515952 123.4819588
 144.2119731 187.0685757 124.7041851 142.8115120 186.6792478 123.7006421
 144.1209548 187.3107877 121.6552164 145.5115354 187.7027619 122.6695471
 144.1690479 189.4521915 123.8395017 142.7667292 189.0587877 122.8502742
 144.0755892 189.6368654 120.7893420 145.4680986 190.0482493 121.7923350
 144.1257766 191.8377647 122.9237785 142.7300217 191.4223078 121.9243739
 145.4309208 192.4194951 120.8703196 143.9350697 193.3648999 120.9783585
 144.0348333 191.9918719 119.8623785 144.5030542 181.3009619 126.0311353
 142.9606585 182.1815741 125.8407896 143.9136181 184.1020562 127.1381875
 145.4488946 183.2407973 127.2902741 144.2107371 181.4480534 128.5820741
 142.7304861 182.4060040 128.4215076 143.8905385 184.3593520 129.4994737
 145.3495863 183.3854758 129.6791921 144.0986746 181.7888178 131.1498960
 142.6439449 182.7811222 130.9738867 143.8701845 184.7502743 131.9286315
 145.3204190 183.7628191 132.1041142 144.0897463 182.2271405 133.6521609
 142.6380939 183.2163802 133.4786289 145.3183060 184.1916533 134.6051465
 143.8699238 183.7982630 135.5492081 143.8537895 185.1804462 134.4385654
 144.4300187 182.5022503 122.5203470 142.9319227 182.2232412 123.4199758
 145.4087693 180.4389571 123.0242213 143.8830396 180.2329919 122.4118611
 144.5420450 179.8437473 125.3898266 144.2797210 178.6281249 124.2064306
 142.0945027 180.6894618 124.8749114 142.2378803 179.1206479 125.6514419
 142.1243367 177.9711193 123.4837990 142.1139557 179.4947440 122.6117341
 139.9612828 180.1370481 123.5503643 139.8824417 178.6079961 124.4427257
 140.1771578 177.3596438 122.2593392 140.2227045 178.8921868 121.3937974
 137.8638941 177.8901213 123.0555216 137.9831443 177.8560585 121.2835859
 137.9161053 179.4123538 122.1363582 152.4480000 175.6220000 116.9240000
 142.0330000 187.5860000 126.2210000 148.3008435 190.0892258 127.1598018
 146.7716208 190.0983423 127.1598476 146.2069748 188.6763454 127.1589514
 144.6787844 188.6829019 127.1583803 144.1072430 187.2830000 127.1580000
 142.7530000 187.2830000 127.1580000 144.7574269 186.2507992 127.1574242
 141.8460000 188.1870000 124.3630000 141.4749627 188.1866082 125.4964083
 141.4719482 187.5706945 127.1604991 148.6700424 189.5548952 128.0432020
 148.6707372 189.5539623 126.2782715 146.4082267 190.6379011 126.2774328
 146.4071634 190.6379044 128.0423625 146.5731151 188.1324740 128.0379224
 146.5730361 188.1339952 126.2777225 144.3115586 189.2013983 126.2661832
 144.3117875 189.2008719 128.0516810 142.3607631 188.1763881 127.1580000
 150.9790000 178.4210000 140.4650000 152.4287774 185.5222005 141.8911438
 150.9196515 185.4367848 141.8042115 150.3599757 184.5336163 142.8952000
 148.8612477 184.4780210 142.7283451 148.2421405 183.6112373 143.8013042
 146.7358159 183.7431808 143.7267451 146.1180844 182.9420000 142.5780000
 144.5720000 182.9420000 142.5780000 143.9646962 184.3687263 142.5780000
 144.4625752 185.2952788 141.4654628 143.9078467 186.7087891 141.6880727
 144.4153630 187.6722987 140.6200697 143.8634345 189.0834171 140.8408251
 144.3719850 190.0236350 139.7456482 143.8252930 191.4387717 139.9227523
 144.3378685 192.3561607 138.8248112 144.0485855 182.2921111 143.9250708
 144.3674433 183.1100878 145.1694143 143.8253105 182.4704234 146.4438002
 144.2533195 183.3343543 147.6239314 143.7370424 182.8130436 148.9585243
 144.2249724 183.7268103 150.0822741 143.7355094 183.2480682 151.4394483
 144.2233657 184.1590515 152.5533876 144.0171881 182.0713906 141.4116574
 144.3707005 180.5855280 141.3014780 143.9769989 179.6508091 142.4499994
 142.4689551 179.6661187 142.7049279 141.7944240 179.0162166 141.5144070
 140.2860011 179.0869084 141.5230254 139.8058935 178.3913068 140.2515470
 138.2978128 178.3880083 140.1594067 150.5170000 178.6890000 139.5100000
 150.4400455 178.3183397 139.5176543 150.3575611 177.9864972 141.2575043
 152.7239754 185.9236320 142.8668291 152.8641727 184.5202427 141.8014485
 150.6169720 185.0496836 140.8240912 150.4778237 186.4364455 141.9038742
 150.6232239 184.9268512 143.8822884 150.7884698 183.5247144 142.8159043
 148.6043187 184.0927845 141.7415598 148.4478951 185.4960287 142.7993450
 148.5762658 183.9492563 144.7875970 148.5563866 182.5657500 143.6975358
 146.4467068 184.7989578 143.6815596 146.4236052 183.4013389 144.6938530
 146.4383425 181.8989625 142.6273618 146.4323881 183.3444737 141.6102644
 144.2112357 184.8376140 143.5204736 142.8763203 184.2546983 142.5242458
 144.1420002 184.9427926 140.4794638 145.5557742 185.3515952 141.4569588
 144.2119731 187.0685757 142.6791851 142.8115120 186.6792478 141.6756421
 144.1209548 187.3107877 139.6302164 145.5115354 187.7027619 140.6445471
 144.1690479 189.4521915 141.8145017 142.7667292 189.0587877 140.8252742
 144.0755892 189.6368654 138.7643420 145.4680986 190.0482493 139.7673350
 144.1257766 191.8377647 140.8987785 142.7300217 191.4223078 139.8993739
 145.4309208 192.4194951 138.8453196 143.9350697 193.3648999 138.9533585
 144.0348333 191.9918719 137.8373785 144.5030542 181.3009619 144.0061353
 142.9606585 182.1815741 143.8157896 143.9136181 184.1020562 145.1131875
 145.4488946 183.2407973 145.2652741 144.2107371 181.4480534 146.5570741
 142.7304861 182.4060040 146.3965076 143.8905385 184.3593520 147.4744737
 145.3495863 183.3854758 147.6541921 144.0986746 181.7888178 149.1248960
 142.6439449 182.7811222 148.9488867 143.8701845 184.7502743 149.9036315
 145.3204190 183.7628191 150.0791142 144.0897463 182.2271405 151.6271609
 142.6380939 183.2163802 151.4536289 145.3183060 184.1916533 152.5801465
 143.8699238 183.7982630 153.5242081 143.8537895 185.1804462 152.4135654
 144.4300187 182.5022503 140.4953470 142.9319227 182.2232412 141.3949758
 145.4087693 180.4389571 140.9992213 143.8830396 180.2329919 140.3868611
 144.5420450 179.8437473 143.3648266 144.2797210 178.6281249 142.1814306
 142.0945027 180.6894618 142.8499114 142.2378803 179.1206479 143.6264419
 142.1243367 177.9711193 141.4587990 142.1139557 179.4947440 140.5867341
 139.9612828 180.1370481 141.5253643 139.8824417 178.6079961 142.4177257
 140.1771578 177.3596438 140.2343392 140.2227045 178.8921868 139.3687974
 137.8638941 177.8901213 141.0305216 137.9831443 177.8560585 139.2585859
 137.9161053 179.4123538 140.1113582 152.4480000 175.6220000 134.8990000
 142.0330000 187.5860000 144.1960000 148.3008435 190.0892258 145.1348018
 146.7716208 190.0983423 145.1348476 146.2069748 188.6763454 145.1339514
 144.6787844 188.6829019 145.1333803 144.1072430 187.2830000 145.1330000
 142.7530000 187.2830000 145.1330000 144.7574269 186.2507992 145.1324242
 141.8460000 188.1870000 142.3380000 141.4749627 188.1866082 143.4714083
 141.4719482 187.5706945 145.1354991 148.6700424 189.5548952 146.0182020
 148.6707372 189.5539623 144.2532715 146.4082267 190.6379011 144.2524328
 146.4071634 190.6379044 146.0173625 146.5731151 188.1324740 146.0129224
 146.5730361 188.1339952 144.2527225 144.3115586 189.2013983 144.2411832
 144.3117875 189.2008719 146.0266810 142.3607631 188.1763881 145.1330000
 150.9790000 178.4210000 158.4400000 152.4287774 185.5222005 159.8661438
 150.9196515 185.4367848 159.7792115 150.3599757 184.5336163 160.8702000
 148.8612477 184.4780210 160.7033451 148.2421405 183.6112373 161.7763042
 146.7358159 183.7431808 161.7017451 146.1180844 182.9420000 160.5530000
 144.5720000 182.9420000 160.5530000 143.9646962 184.3687263 160.5530000
 144.4625752 185.2952788 159.4404628 143.9078467 186.7087891 159.6630727
 144.4153630 187.6722987 158.5950697 143.8634345 189.0834171 158.8158251
 144.3719850 190.0236350 157.7206482 143.8252930 191.4387717 157.8977523
 144.3378685 192.3561607 156.7998112 144.0485855 182.2921111 161.9000708
 144.3674433 183.1100878 163.1444143 143.8253105 182.4704234 164.4188002
 144.2533195 183.3343543 165.5989314 143.7370424 182.8130436 166.9335243
 144.2249724 183.7268103 168.0572741 143.7355094 183.2480682 169.4144483
 144.2233657 184.1590515 170.5283876 144.0171881 182.0713906 159.3866574
 144.3707005 180.5855280 159.2764780 143.9769989 179.6508091 160.4249994
 142.4689551 179.6661187 160.6799279 141.7944240 179.0162166 159.4894070
 140.2860011 179.0869084 159.4980254 139.8058935 178.3913068 158.2265470
 138.2978128 178.3880083 158.1344067 150.5170000 178.6890000 157.4850000
 150.4400455 178.3183397 157.4926543 150.3575611 177.9864972 159.2325043
 152.7239754 185.9236320 160.8418291 152.8641727 184.5202427 159.7764485
 150.6169720 185.0496836 158.7990912 150.4778237 186.4364455 159.8788742
 150.6232239 184.9268512 161.8572884 150.7884698 183.5247144 160.7909043
 148.6043187 184.0927845 159.7165598 148.4478951 185.4960287 160.7743450
 148.5762658 183.9492563 162.7625970 148.5563866 182.5657500 161.6725358
 146.4467068 184.7989578 161.6565596 146.4236052 183.4013389 162.6688530
 146.4383425 181.8989625 160.6023618 146.4323881 183.3444737 159.5852644
 144.2112357 184.8376140 161.4954736 142.8763203 184.2546983 160.4992458
 144.1420002 184.9427926 158.4544638 145.5557742 185.3515952 159.4319588
 144.2119731 187.0685757 160.6541851 142.8115120 186.6792478 159.6506421
 144.1209548 187.3107877 157.6052164 145.5115354 187.7027619 158.6195471
 144.1690479 189.4521915 159.7895017 142.7667292 189.0587877 158.8002742
 144.0755892 189.6368654 156.7393420 145.4680986 190.0482493 157.7423350
 144.1257766 191.8377647 158.8737785 142.7300217 191.4223078 157.8743739
 145.4309208 192.4194951 156.8203196 143.9350697 193.3648999 156.9283585
 144.0348333 191.9918719 155.8123785 144.5030542 181.3009619 161.9811353
 142.9606585 182.1815741 161.7907896 143.9136181 184.1020562 163.0881875
 145.4488946 183.2407973 163.2402741 144.2107371 181.4480534 164.5320741
 142.7304861 182.4060040 164.3715076 143.8905385 184.3593520 165.4494737
 145.3495863 183.3854758 165.6291921 144.0986746 181.7888178 167.0998960
 142.6439449 182.7811222 166.9238867 143.8701845 184.7502743 167.8786315
 145.3204190 183.7628191 168.0541142 144.0897463 182.2271405 169.6021609
 142.6380939 183.2163802 169.4286289 145.3183060 184.1916533 170.5551465
 143.8699238 183.7982630 171.4992081 143.8537895 185.1804462 170.3885654
 144.4300187 182.5022503 158.4703470 142.9319227 182.2232412 159.3699758
 145.4087693 180.4389571 158.9742213 143.8830396 180.2329919 158.3618611
 144.5420450 179.8437473 161.3398266 144.2797210 178.6281249 160.1564306
 142.0945027 180.6894618 160.8249114 142.2378803 179.1206479 161.6014419
 142.1243367 177.9711193 159.4337990 142.1139557 179.4947440 158.5617341
 139.9612828 180.1370481 159.5003643 139.8824417 178.6079961 160.3927257
 140.1771578 177.3596438 158.2093392 140.2227045 178.8921868 157.3437974
 137.8638941 177.8901213 159.0055216 137.9831443 177.8560585 157.2335859
 137.9161053 179.4123538 158.0863582 152.4480000 175.6220000 152.8740000
 142.0330000 187.5860000 162.1710000 148.3008435 190.0892258 163.1098018
 146.7716208 190.0983423 163.1098476 146.2069748 188.6763454 163.1089514
 144.6787844 188.6829019 163.1083803 144.1072430 187.2830000 163.1080000
 142.7530000 187.2830000 163.1080000 144.7574269 186.2507992 163.1074242
 141.8460000 188.1870000 160.3130000 141.4749627 188.1866082 161.4464083
 141.4719482 187.5706945 163.1104991 148.6700424 189.5548952 163.9932020
 148.6707372 189.5539623 162.2282715 146.4082267 190.6379011 162.2274328
 146.4071634 190.6379044 163.9923625 146.5731151 188.1324740 163.9879224
 146.5730361 188.1339952 162.2277225 144.3115586 189.2013983 162.2161832
 144.3117875 189.2008719 164.0016810 142.3607631 188.1763881 163.1080000
 150.9790000 178.4210000 176.4150000 152.4287774 185.5222005 177.8411438
 150.9196515 185.4367848 177.7542115 150.3599757 184.5336163 178.8452000
 148.8612477 184.4780210 178.6783451 148.2421405 183.6112373 179.7513042
 146.7358159 183.7431808 179.6767451 146.1180844 182.9420000 178.5280000
 144.5720000 182.9420000 178.5280000 143.9646962 184.3687263 178.5280000
 144.4625752 185.2952788 177.4154628 143.9078467 186.7087891 177.6380727
 144.4153630 187.6722987 176.5700697 143.8634345 189.0834171 176.7908251
 144.3719850 190.0236350 175.6956482 143.8252930 191.4387717 175.8727523
 144.3378685 192.3561607 174.7748112 144.0485855 182.2921111 179.8750708
 144.3674433 183.1100878 181.1194143 143.8253105 182.4704234 182.3938002
 144.2533195 183.3343543 183.5739314 143.7370424 182.8130436 184.9085243
 144.2249724 183.7268103 186.0322741 143.7355094 183.2480682 187.3894483
 144.2233657 184.1590515 188.5033876 144.0171881 182.0713906 177.3616574
 144.3707005 180.5855280 177.2514780 143.9769989 179.6508091 178.3999994
 142.4689551 179.6661187 178.6549279 141.7944240 179.0162166 177.4644070
 140.2860011 179.0869084 177.4730254 139.8058935 178.3913068 176.2015470
 138.2978128 178.3880083 176.1094067 150.5170000 178.6890000 175.4600000
 150.4400455 178.3183397 175.4676543 150.3575611 177.9864972 177.2075043
 152.7239754 185.9236320 178.8168291 152.8641727 184.5202427 177.7514485
 150.6169720 185.0496836 176.7740912 150.4778237 186.4364455 177.8538742
 150.6232239 184.9268512 179.8322884 150.7884698 183.5247144 178.7659043
 148.6043187 184.0927845 177.6915598 148.4478951 185.4960287 178.7493450
 148.5762658 183.9492563 180.7375970 148.5563866 182.5657500 179.6475358
 146.4467068 184.7989578 179.6315596 146.4236052 183.4013389 180.6438530
 146.4383425 181.8989625 178.5773618 146.4323881 183.3444737 177.5602644
 144.2112357 184.8376140 179.4704736 142.8763203 184.2546983 178.4742458
 144.1420002 184.9427926 176.4294638 145.5557742 185.3515952 177.4069588
 144.2119731 187.0685757 178.6291851 142.8115120 186.6792478 177.6256421
 144.1209548 187.3107877 175.5802164 145.5115354 187.7027619 176.5945471
 144.1690479 189.4521915 177.7645017 142.7667292 189.0587877 176.7752742
 144.0755892 189.6368654 174.7143420 145.4680986 190.0482493 175.7173350
 144.1257766 191.8377647 176.8487785 142.7300217 191.4223078 175.8493739
 145.4309208 192.4194951 174.7953196 143.9350697 193.3648999 174.9033585
 144.0348333 191.9918719 173.7873785 144.5030542 181.3009619 179.9561353
 142.9606585 182.1815741 179.7657896 143.9136181 184.1020562 181.0631875
 145.4488946 183.2407973 181.2152741 144.2107371 181.4480534 182.5070741
 142.7304861 182.4060040 182.3465076 143.8905385 184.3593520 183.4244737
 145.3495863 183.3854758 183.6041921 144.0986746 181.7888178 185.0748960
 142.6439449 182.7811222 184.8988867 143.8701845 184.7502743 185.8536315
 145.3204190 183.7628191 186.0291142 144.0897463 182.2271405 187.5771609
 142.6380939 183.2163802 187.4036289 145.3183060 184.1916533 188.5301465
 143.8699238 183.7982630 189.4742081 143.8537895 185.1804462 188.3635654
 144.4300187 182.5022503 176.4453470 142.9319227 182.2232412 177.3449758
 145.4087693 180.4389571 176.9492213 143.8830396 180.2329919 176.3368611
 144.5420450 179.8437473 179.3148266 144.2797210 178.6281249 178.1314306
 142.0945027 180.6894618 178.7999114 142.2378803 179.1206479 179.5764419
 142.1243367 177.9711193 177.4087990 142.1139557 179.4947440 176.5367341
 139.9612828 180.1370481 177.4753643 139.8824417 178.6079961 178.3677257
 140.1771578 177.3596438 176.1843392 140.2227045 178.8921868 175.3187974
 137.8638941 177.8901213 176.9805216 137.9831443 177.8560585 175.2085859
 137.9161053 179.4123538 176.0613582 152.4480000 175.6220000 170.8490000
 142.0330000 187.5860000 180.1460000 148.3008435 190.0892258 181.0848018
 146.7716208 190.0983423 181.0848476 146.2069748 188.6763454 181.0839514
 144.6787844 188.6829019 181.0833803 144.1072430 187.2830000 181.0830000
 142.7530000 187.2830000 181.0830000 144.7574269 186.2507992 181.0824242
 141.8460000 188.1870000 178.2880000 141.4749627 188.1866082 179.4214083
 141.4719482 187.5706945 181.0854991 148.6700424 189.5548952 181.9682020
 148.6707372 189.5539623 180.2032715 146.4082267 190.6379011 180.2024328
 146.4071634 190.6379044 181.9673625 146.5731151 188.1324740 181.9629224
 146.5730361 188.1339952 180.2027225 144.3115586 189.2013983 180.1911832
 144.3117875 189.2008719 181.9766810 142.3607631 188.1763881 181.0830000
 171.1280000  66.7990000  68.5660000 172.5777774  73.9002005  69.9921438
 171.0686515  73.8147848  69.9052115 170.5089757  72.9116163  70.9962000
 169.0102477  72.8560210  70.8293451 168.3911405  71.9892373  71.9023042
 166.8848159  72.1211808  71.8277451 166.2670844  71.3200000  70.6790000
 164.7210000  71.3200000  70.6790000 164.1136962  72.7467263  70.6790000
 164.6115752  73.6732788  69.5664628 164.0568467  75.0867891  69.7890727
 164.5643630  76.0502987  68.7210697 164.0124345  77.4614171  68.9418251
 164.5209850  78.4016350  67.8466482 163.9742930  79.8167717  68.0237523
 164.4868685  80.7341607  66.9258112 164.1975855  70.6701111  72.0260708
 164.5164433  71.4880878  73.2704143 163.9743105  70.8484234  74.5448002
 164.4023195  71.7123543  75.7249314 163.8860424  71.1910436  77.0595243
 164.3739724  72.1048103  78.1832741 163.8845094  71.6260682  79.5404483
 164.3723657  72.5370515  80.6543876 164.1661881  70.4493906  69.5126574
 164.5197005  68.9635280  69.4024780 164.1259989  68.0288091  70.5509994
 162.6179551  68.0441187  70.8059279 161.9434240  67.3942166  69.6154070
 160.4350011  67.4649084  69.6240254 159.9548935  66.7693068  68.3525470
 158.4468128  66.7660083  68.2604067 170.6660000  67.0670000  67.6110000
 170.5890455  66.6963397  67.6186543 170.5065611  66.3644972  69.3585043
 172.8729754  74.3016320  70.9678291 173.0131727  72.8982427  69.9024485
 170.7659720  73.4276836  68.9250912 170.6268237  74.8144455  70.0048742
 170.7722239  73.3048512  71.9832884 170.9374698  71.9027144  70.9169043
 168.7533187  72.4707845  69.8425598 168.5968951  73.8740287  70.9003450
 168.7252658  72.3272563  72.8885970 168.7053866  70.9437500  71.7985358
 166.5957068  73.1769578  71.7825596 166.5726052  71.7793389  72.7948530
 166.5873425  70.2769625  70.7283618 166.5813881  71.7224737  69.7112644
 164.3602357  73.2156140  71.6214736 163.0253203  72.6326983  70.6252458
 164.2910002  73.3207926  68.5804638 165.7047742  73.7295952  69.5579588
 164.3609731  75.4465757  70.7801851 162.9605120  75.0572478  69.7766421
 164.2699548  75.6887877  67.7312164 165.6605354  76.0807619  68.7455471
 164.3180479  77.8301915  69.9155017 162.9157292  77.4367877  68.9262742
 164.2245892  78.0148654  66.8653420 165.6170986  78.4262493  67.8683350
 164.2747766  80.2157647  68.9997785 162.8790217  79.8003078  68.0003739
 165.5799208  80.7974951  66.9463196 164.0840697  81.7428999  67.0543585
 164.1838333  80.3698719  65.9383785 164.6520542  69.6789619  72.1071353
 163.1096585  70.5595741  71.9167896 164.0626181  72.4800562  73.2141875
 165.5978946  71.6187973  73.3662741 164.3597371  69.8260534  74.6580741
 162.8794861  70.7840040  74.4975076 164.0395385  72.7373520  75.5754737
 165.4985863  71.7634758  75.7551921 164.2476746  70.1668178  77.2258960
 162.7929449  71.1591222  77.0498867 164.0191845  73.1282743  78.0046315
 165.4694190  72.1408191  78.1801142 164.2387463  70.6051405  79.7281609
 162.7870939  71.5943802  79.5546289 165.4673060  72.5696533  80.6811465
 164.0189238  72.1762630  81.6252081 164.0027895  73.5584462  80.5145654
 164.5790187  70.8802503  68.5963470 163.0809227  70.6012412  69.4959758
 165.5577693  68.8169571  69.1002213 164.0320396  68.6109919  68.4878611
 164.6910450  68.2217473  71.4658266 164.4287210  67.0061249  70.2824306
 162.2435027  69.0674618  70.9509114 162.3868803  67.4986479  71.7274419
 162.2733367  66.3491193  69.5597990 162.2629557  67.8727440  68.6877341
 160.1102828  68.5150481  69.6263643 160.0314417  66.9859961  70.5187257
 160.3261578  65.7376438  68.3353392 160.3717045  67.2701868  67.4697974
 158.0128941  66.2681213  69.1315216 158.1321443  66.2340585  67.3595859
 158.0651053  67.7903538  68.2123582 172.5970000  64.0000000  63.0000000
 162.1820000  75.9640000  72.2970000 168.4498435  78.4672258  73.2358018
 166.9206208  78.4763423  73.2358476 166.3559748  77.0543454  73.2349514
 164.8277844  77.0609019  73.2343803 164.2562430  75.6610000  73.2340000
 162.9020000  75.6610000  73.2340000 164.9064269  74.6287992  73.2334242
 161.9950000  76.5650000  70.4390000 161.6239627  76.5646082  71.5724083
 161.6209482  75.9486945  73.2364991 168.8190424  77.9328952  74.1192020
 168.8197372  77.9319623  72.3542715 166.5572267  79.0159011  72.3534328
 166.5561634  79.0159044  74.1183625 166.7221151  76.5104740  74.1139224
 166.7220361  76.5119952  72.3537225 164.4605586  77.5793983  72.3421832
 164.4607875  77.5788719  74.1276810 162.5097631  76.5543881  73.2340000
 171.1280000  66.7990000  86.5410000 172.5777774  73.9002005  87.9671438
 171.0686515  73.8147848  87.8802115 170.5089757  72.9116163  88.9712000
 169.0102477  72.8560210  88.8043451 168.3911405  71.9892373  89.8773042
 166.8848159  72.1211808  89.8027451 166.2670844  71.3200000  88.6540000
 164.7210000  71.3200000  88.6540000 164.1136962  72.7467263  88.6540000
 164.6115752  73.6732788  87.5414628 164.0568467  75.0867891  87.7640727
 164.5643630  76.0502987  86.6960697 164.0124345  77.4614171  86.9168251
 164.5209850  78.4016350  85.8216482 163.9742930  79.8167717  85.9987523
 164.4868685  80.7341607  84.9008112 164.1975855  70.6701111  90.0010708
 164.5164433  71.4880878  91.2454143 163.9743105  70.8484234  92.5198002
 164.4023195  71.7123543  93.6999314 163.8860424  71.1910436  95.0345243
 164.3739724  72.1048103  96.1582741 163.8845094  71.6260682  97.5154483
 164.3723657  72.5370515  98.6293876 164.1661881  70.4493906  87.4876574
 164.5197005  68.9635280  87.3774780 164.1259989  68.0288091  88.5259994
 162.6179551  68.0441187  88.7809279 161.9434240  67.3942166  87.5904070
 160.4350011  67.4649084  87.5990254 159.9548935  66.7693068  86.3275470
 158.4468128  66.7660083  86.2354067 170.6660000  67.0670000  85.5860000
 170.5890455  66.6963397  85.5936543 170.5065611  66.3644972  87.3335043
 172.8729754  74.3016320  88.9428291 173.0131727  72.8982427  87.8774485
 170.7659720  73.4276836  86.9000912 170.6268237  74.8144455  87.9798742
 170.7722239  73.3048512  89.9582884 170.9374698  71.9027144  88.8919043
 168.7533187  72.4707845  87.8175598 168.5968951  73.8740287  88.8753450
 168.7252658  72.3272563  90.8635970 168.7053866  70.9437500  89.7735358
 166.5957068  73.1769578  89.7575596 166.5726052  71.7793389  90.7698530
 166.5873425  70.2769625  88.7033618 166.5813881  71.7224737  87.6862644
 164.3602357  73.2156140  89.5964736 163.0253203  72.6326983  88.6002458
 164.2910002  73.3207926  86.5554638 165.7047742  73.7295952  87.5329588
 164.3609731  75.4465757  88.7551851 162.9605120  75.0572478  87.7516421
 164.2699548  75.6887877  85.7062164 165.6605354  76.0807619  86.7205471
 164.3180479  77.8301915  87.8905017 162.9157292  77.4367877  86.9012742
 164.2245892  78.0148654  84.8403420 165.6170986  78.4262493  85.8433350
 164.2747766  80.2157647  86.9747785 162.8790217  79.8003078  85.9753739
 165.5799208  80.7974951  84.9213196 164.0840697  81.7428999  85.0293585
 164.1838333  80.3698719  83.9133785 164.6520542  69.6789619  90.0821353
 163.1096585  70.5595741  89.8917896 164.0626181  72.4800562  91.1891875
 165.5978946  71.6187973  91.3412741 164.3597371  69.8260534  92.6330741
 162.8794861  70.7840040  92.4725076 164.0395385  72.7373520  93.5504737
 165.4985863  71.7634758  93.7301921 164.2476746  70.1668178  95.2008960
 162.7929449  71.1591222  95.0248867 164.0191845  73.1282743  95.9796315
 165.4694190  72.1408191  96.1551142 164.2387463  70.6051405  97.7031609
 162.7870939  71.5943802  97.5296289 165.4673060  72.5696533  98.6561465
 164.0189238  72.1762630  99.6002081 164.0027895  73.5584462  98.4895654
 164.5790187  70.8802503  86.5713470 163.0809227  70.6012412  87.4709758
 165.5577693  68.8169571  87.0752213 164.0320396  68.6109919  86.4628611
 164.6910450  68.2217473  89.4408266 164.4287210  67.0061249  88.2574306
 162.2435027  69.0674618  88.9259114 162.3868803  67.4986479  89.7024419
 162.2733367  66.3491193  87.5347990 162.2629557  67.8727440  86.6627341
 160.1102828  68.5150481  87.6013643 160.0314417  66.9859961  88.4937257
 160.3261578  65.7376438  86.3103392 160.3717045  67.2701868  85.4447974
 158.0128941  66.2681213  87.1065216 158.1321443  66.2340585  85.3345859
 158.0651053  67.7903538  86.1873582 172.5970000  64.0000000  80.9750000
 162.1820000  75.9640000  90.2720000 168.4498435  78.4672258  91.2108018
 166.9206208  78.4763423  91.2108476 166.3559748  77.0543454  91.2099514
 164.8277844  77.0609019  91.2093803 164.2562430  75.6610000  91.2090000
 162.9020000  75.6610000  91.2090000 164.9064269  74.6287992  91.2084242
 161.9950000  76.5650000  88.4140000 161.6239627  76.5646082  89.5474083
 161.6209482  75.9486945  91.2114991 168.8190424  77.9328952  92.0942020
 168.8197372  77.9319623  90.3292715 166.5572267  79.0159011  90.3284328
 166.5561634  79.0159044  92.0933625 166.7221151  76.5104740  92.0889224
 166.7220361  76.5119952  90.3287225 164.4605586  77.5793983  90.3171832
 164.4607875  77.5788719  92.1026810 162.5097631  76.5543881  91.2090000
 171.1280000  66.7990000 104.5160000 172.5777774  73.9002005 105.9421438
 171.0686515  73.8147848 105.8552115 170.5089757  72.9116163 106.9462000
 169.0102477  72.8560210 106.7793451 168.3911405  71.9892373 107.8523042
 166.8848159  72.1211808 107.7777451 166.2670844  71.3200000 106.6290000
 164.7210000  71.3200000 106.6290000 164.1136962  72.7467263 106.6290000
 164.6115752  73.6732788 105.5164628 164.0568467  75.0867891 105.7390727
 164.5643630  76.0502987 104.6710697 164.0124345  77.4614171 104.8918251
 164.5209850  78.4016350 103.7966482 163.9742930  79.8167717 103.9737523
 164.4868685  80.7341607 102.8758112 164.1975855  70.6701111 107.9760708
 164.5164433  71.4880878 109.2204143 163.9743105  70.8484234 110.4948002
 164.4023195  71.7123543 111.6749314 163.8860424  71.1910436 113.0095243
 164.3739724  72.1048103 114.1332741 163.8845094  71.6260682 115.4904483
 164.3723657  72.5370515 116.6043876 164.1661881  70.4493906 105.4626574
 164.5197005  68.9635280 105.3524780 164.1259989  68.0288091 106.5009994
 162.6179551  68.0441187 106.7559279 161.9434240  67.3942166 105.5654070
 160.4350011  67.4649084 105.5740254 159.9548935  66.7693068 104.3025470
 158.4468128  66.7660083 104.2104067 170.6660000  67.0670000 103.5610000
 170.5890455  66.6963397 103.5686543 170.5065611  66.3644972 105.3085043
 172.8729754  74.3016320 106.9178291 173.0131727  72.8982427 105.8524485
 170.7659720  73.4276836 104.8750912 170.6268237  74.8144455 105.9548742
 170.7722239  73.3048512 107.9332884 170.9374698  71.9027144 106.8669043
 168.7533187  72.4707845 105.7925598 168.5968951  73.8740287 106.8503450
 168.7252658  72.3272563 108.8385970 168.7053866  70.9437500 107.7485358
 166.5957068  73.1769578 107.7325596 166.5726052  71.7793389 108.7448530
 166.5873425  70.2769625 106.6783618 166.5813881  71.7224737 105.6612644
 164.3602357  73.2156140 107.5714736 163.0253203  72.6326983 106.5752458
 164.2910002  73.3207926 104.5304638 165.7047742  73.7295952 105.5079588
 164.3609731  75.4465757 106.7301851 162.9605120  75.0572478 105.7266421
 164.2699548  75.6887877 103.6812164 165.6605354  76.0807619 104.6955471
 164.3180479  77.8301915 105.8655017 162.9157292  77.4367877 104.8762742
 164.2245892  78.0148654 102.8153420 165.6170986  78.4262493 103.8183350
 164.2747766  80.2157647 104.9497785 162.8790217  79.8003078 103.9503739
 165.5799208  80.7974951 102.8963196 164.0840697  81.7428999 103.0043585
 164.1838333  80.3698719 101.8883785 164.6520542  69.6789619 108.0571353
 163.1096585  70.5595741 107.8667896 164.0626181  72.4800562 109.1641875
 165.5978946  71.6187973 109.3162741 164.3597371  69.8260534 110.6080741
 162.8794861  70.7840040 110.4475076 164.0395385  72.7373520 111.5254737
 165.4985863  71.7634758 111.7051921 164.2476746  70.1668178 113.1758960
 162.7929449  71.1591222 112.9998867 164.0191845  73.1282743 113.9546315
 165.4694190  72.1408191 114.1301142 164.2387463  70.6051405 115.6781609
 162.7870939  71.5943802 115.5046289 165.4673060  72.5696533 116.6311465
 164.0189238  72.1762630 117.5752081 164.0027895  73.5584462 116.4645654
 164.5790187  70.8802503 104.5463470 163.0809227  70.6012412 105.4459758
 165.5577693  68.8169571 105.0502213 164.0320396  68.6109919 104.4378611
 164.6910450  68.2217473 107.4158266 164.4287210  67.0061249 106.2324306
 162.2435027  69.0674618 106.9009114 162.3868803  67.4986479 107.6774419
 162.2733367  66.3491193 105.5097990 162.2629557  67.8727440 104.6377341
 160.1102828  68.5150481 105.5763643 160.0314417  66.9859961 106.4687257
 160.3261578  65.7376438 104.2853392 160.3717045  67.2701868 103.4197974
 158.0128941  66.2681213 105.0815216 158.1321443  66.2340585 103.3095859
 158.0651053  67.7903538 104.1623582 172.5970000  64.0000000  98.9500000
 162.1820000  75.9640000 108.2470000 168.4498435  78.4672258 109.1858018
 166.9206208  78.4763423 109.1858476 166.3559748  77.0543454 109.1849514
 164.8277844  77.0609019 109.1843803 164.2562430  75.6610000 109.1840000
 162.9020000  75.6610000 109.1840000 164.9064269  74.6287992 109.1834242
 161.9950000  76.5650000 106.3890000 161.6239627  76.5646082 107.5224083
 161.6209482  75.9486945 109.1864991 168.8190424  77.9328952 110.0692020
 168.8197372  77.9319623 108.3042715 166.5572267  79.0159011 108.3034328
 166.5561634  79.0159044 110.0683625 166.7221151  76.5104740 110.0639224
 166.7220361  76.5119952 108.3037225 164.4605586  77.5793983 108.2921832
 164.4607875  77.5788719 110.0776810 162.5097631  76.5543881 109.1840000
 171.1280000  66.7990000 122.4900000 172.5777774  73.9002005 123.9161438
 171.0686515  73.8147848 123.8292115 170.5089757  72.9116163 124.9202000
 169.0102477  72.8560210 124.7533451 168.3911405  71.9892373 125.8263042
 166.8848159  72.1211808 125.7517451 166.2670844  71.3200000 124.6030000
 164.7210000  71.3200000 124.6030000 164.1136962  72.7467263 124.6030000
 164.6115752  73.6732788 123.4904628 164.0568467  75.0867891 123.7130727
 164.5643630  76.0502987 122.6450697 164.0124345  77.4614171 122.8658251
 164.5209850  78.4016350 121.7706482 163.9742930  79.8167717 121.9477523
 164.4868685  80.7341607 120.8498112 164.1975855  70.6701111 125.9500708
 164.5164433  71.4880878 127.1944143 163.9743105  70.8484234 128.4688002
 164.4023195  71.7123543 129.6489314 163.8860424  71.1910436 130.9835243
 164.3739724  72.1048103 132.1072741 163.8845094  71.6260682 133.4644483
 164.3723657  72.5370515 134.5783876 164.1661881  70.4493906 123.4366574
 164.5197005  68.9635280 123.3264780 164.1259989  68.0288091 124.4749994
 162.6179551  68.0441187 124.7299279 161.9434240  67.3942166 123.5394070
 160.4350011  67.4649084 123.5480254 159.9548935  66.7693068 122.2765470
 158.4468128  66.7660083 122.1844067 170.6660000  67.0670000 121.5350000
 170.5890455  66.6963397 121.5426543 170.5065611  66.3644972 123.2825043
 172.8729754  74.3016320 124.8918291 173.0131727  72.8982427 123.8264485
 170.7659720  73.4276836 122.8490912 170.6268237  74.8144455 123.9288742
 170.7722239  73.3048512 125.9072884 170.9374698  71.9027144 124.8409043
 168.7533187  72.4707845 123.7665598 168.5968951  73.8740287 124.8243450
 168.7252658  72.3272563 126.8125970 168.7053866  70.9437500 125.7225358
 166.5957068  73.1769578 125.7065596 166.5726052  71.7793389 126.7188530
 166.5873425  70.2769625 124.6523618 166.5813881  71.7224737 123.6352644
 164.3602357  73.2156140 125.5454736 163.0253203  72.6326983 124.5492458
 164.2910002  73.3207926 122.5044638 165.7047742  73.7295952 123.4819588
 164.3609731  75.4465757 124.7041851 162.9605120  75.0572478 123.7006421
 164.2699548  75.6887877 121.6552164 165.6605354  76.0807619 122.6695471
 164.3180479  77.8301915 123.8395017 162.9157292  77.4367877 122.8502742
 164.2245892  78.0148654 120.7893420 165.6170986  78.4262493 121.7923350
 164.2747766  80.2157647 122.9237785 162.8790217  79.8003078 121.9243739
 165.5799208  80.7974951 120.8703196 164.0840697  81.7428999 120.9783585
 164.1838333  80.3698719 119.8623785 164.6520542  69.6789619 126.0311353
 163.1096585  70.5595741 125.8407896 164.0626181  72.4800562 127.1381875
 165.5978946  71.6187973 127.2902741 164.3597371  69.8260534 128.5820741
 162.8794861  70.7840040 128.4215076 164.0395385  72.7373520 129.4994737
 165.4985863  71.7634758 129.6791921 164.2476746  70.1668178 131.1498960
 162.7929449  71.1591222 130.9738867 164.0191845  73.1282743 131.9286315
 165.4694190  72.1408191 132.1041142 164.2387463  70.6051405 133.6521609
 162.7870939  71.5943802 133.4786289 165.4673060  72.5696533 134.6051465
 164.0189238  72.1762630 135.5492081 164.0027895  73.5584462 134.4385654
 164.5790187  70.8802503 122.5203470 163.0809227  70.6012412 123.4199758
 165.5577693  68.8169571 123.0242213 164.0320396  68.6109919 122.4118611
 164.6910450  68.2217473 125.3898266 164.4287210  67.0061249 124.2064306
 162.2435027  69.0674618 124.8749114 162.3868803  67.4986479 125.6514419
 162.2733367  66.3491193 123.4837990 162.2629557  67.8727440 122.6117341
 160.1102828  68.5150481 123.5503643 160.0314417  66.9859961 124.4427257
 160.3261578  65.7376438 122.2593392 160.3717045  67.2701868 121.3937974
 158.0128941  66.2681213 123.0555216 158.1321443  66.2340585 121.2835859
 158.0651053  67.7903538 122.1363582 172.5970000  64.0000000 116.9240000
 162.1820000  75.9640000 126.2210000 168.4498435  78.4672258 127.1598018
 166.9206208  78.4763423 127.1598476 166.3559748  77.0543454 127.1589514
 164.8277844  77.0609019 127.1583803 164.2562430  75.6610000 127.1580000
 162.9020000  75.6610000 127.1580000 164.9064269  74.6287992 127.1574242
 161.9950000  76.5650000 124.3630000 161.6239627  76.5646082 125.4964083
 161.6209482  75.9486945 127.1604991 168.8190424  77.9328952 128.0432020
 168.8197372  77.9319623 126.2782715 166.5572267  79.0159011 126.2774328
 166.5561634  79.0159044 128.0423625 166.7221151  76.5104740 128.0379224
 166.7220361  76.5119952 126.2777225 164.4605586  77.5793983 126.2661832
 164.4607875  77.5788719 128.0516810 162.5097631  76.5543881 127.1580000
 171.1280000  66.7990000 140.4650000 172.5777774  73.9002005 141.8911438
 171.0686515  73.8147848 141.8042115 170.5089757  72.9116163 142.8952000
 169.0102477  72.8560210 142.7283451 168.3911405  71.9892373 143.8013042
 166.8848159  72.1211808 143.7267451 166.2670844  71.3200000 142.5780000
 164.7210000  71.3200000 142.5780000 164.1136962  72.7467263 142.5780000
 164.6115752  73.6732788 141.4654628 164.0568467  75.0867891 141.6880727
 164.5643630  76.0502987 140.6200697 164.0124345  77.4614171 140.8408251
 164.5209850  78.4016350 139.7456482 163.9742930  79.8167717 139.9227523
 164.4868685  80.7341607 138.8248112 164.1975855  70.6701111 143.9250708
 164.5164433  71.4880878 145.1694143 163.9743105  70.8484234 146.4438002
 164.4023195  71.7123543 147.6239314 163.8860424  71.1910436 148.9585243
 164.3739724  72.1048103 150.0822741 163.8845094  71.6260682 151.4394483
 164.3723657  72.5370515 152.5533876 164.1661881  70.4493906 141.4116574
 164.5197005  68.9635280 141.3014780 164.1259989  68.0288091 142.4499994
 162.6179551  68.0441187 142.7049279 161.9434240  67.3942166 141.5144070
 160.4350011  67.4649084 141.5230254 159.9548935  66.7693068 140.2515470
 158.4468128  66.7660083 140.1594067 170.6660000  67.0670000 139.5100000
 170.5890455  66.6963397 139.5176543 170.5065611  66.3644972 141.2575043
 172.8729754  74.3016320 142.8668291 173.0131727  72.8982427 141.8014485
 170.7659720  73.4276836 140.8240912 170.6268237  74.8144455 141.9038742
 170.7722239  73.3048512 143.8822884 170.9374698  71.9027144 142.8159043
 168.7533187  72.4707845 141.7415598 168.5968951  73.8740287 142.7993450
 168.7252658  72.3272563 144.7875970 168.7053866  70.9437500 143.6975358
 166.5957068  73.1769578 143.6815596 166.5726052  71.7793389 144.6938530
 166.5873425  70.2769625 142.6273618 166.5813881  71.7224737 141.6102644
 164.3602357  73.2156140 143.5204736 163.0253203  72.6326983 142.5242458
 164.2910002  73.3207926 140.4794638 165.7047742  73.7295952 141.4569588
 164.3609731  75.4465757 142.6791851 162.9605120  75.0572478 141.6756421
 164.2699548  75.6887877 139.6302164 165.6605354  76.0807619 140.6445471
 164.3180479  77.8301915 141.8145017 162.9157292  77.4367877 140.8252742
 164.2245892  78.0148654 138.7643420 165.6170986  78.4262493 139.7673350
 164.2747766  80.2157647 140.8987785 162.8790217  79.8003078 139.8993739
 165.5799208  80.7974951 138.8453196 164.0840697  81.7428999 138.9533585
 164.1838333  80.3698719 137.8373785 164.6520542  69.6789619 144.0061353
 163.1096585  70.5595741 143.8157896 164.0626181  72.4800562 145.1131875
 165.5978946  71.6187973 145.2652741 164.3597371  69.8260534 146.5570741
 162.8794861  70.7840040 146.3965076 164.0395385  72.7373520 147.4744737
 165.4985863  71.7634758 147.6541921 164.2476746  70.1668178 149.1248960
 162.7929449  71.1591222 148.9488867 164.0191845  73.1282743 149.9036315
 165.4694190  72.1408191 150.0791142 164.2387463  70.6051405 151.6271609
 162.7870939  71.5943802 151.4536289 165.4673060  72.5696533 152.5801465
 164.0189238  72.1762630 153.5242081 164.0027895  73.5584462 152.4135654
 164.5790187  70.8802503 140.4953470 163.0809227  70.6012412 141.3949758
 165.5577693  68.8169571 140.9992213 164.0320396  68.6109919 140.3868611
 164.6910450  68.2217473 143.3648266 164.4287210  67.0061249 142.1814306
 162.2435027  69.0674618 142.8499114 162.3868803  67.4986479 143.6264419
 162.2733367  66.3491193 141.4587990 162.2629557  67.8727440 140.5867341
 160.1102828  68.5150481 141.5253643 160.0314417  66.9859961 142.4177257
 160.3261578  65.7376438 140.2343392 160.3717045  67.2701868 139.3687974
 158.0128941  66.2681213 141.0305216 158.1321443  66.2340585 139.2585859
 158.0651053  67.7903538 140.1113582 172.5970000  64.0000000 134.8990000
 162.1820000  75.9640000 144.1960000 168.4498435  78.4672258 145.1348018
 166.9206208  78.4763423 145.1348476 166.3559748  77.0543454 145.1339514
 164.8277844  77.0609019 145.1333803 164.2562430  75.6610000 145.1330000
 162.9020000  75.6610000 145.1330000 164.9064269  74.6287992 145.1324242
 161.9950000  76.5650000 142.3380000 161.6239627  76.5646082 143.4714083
 161.6209482  75.9486945 145.1354991 168.8190424  77.9328952 146.0182020
 168.8197372  77.9319623 144.2532715 166.5572267  79.0159011 144.2524328
 166.5561634  79.0159044 146.0173625 166.7221151  76.5104740 146.0129224
 166.7220361  76.5119952 144.2527225 164.4605586  77.5793983 144.2411832
 164.4607875  77.5788719 146.0266810 162.5097631  76.5543881 145.1330000
 171.1280000  66.7990000 158.4400000 172.5777774  73.9002005 159.8661438
 171.0686515  73.8147848 159.7792115 170.5089757  72.9116163 160.8702000
 169.0102477  72.8560210 160.7033451 168.3911405  71.9892373 161.7763042
 166.8848159  72.1211808 161.7017451 166.2670844  71.3200000 160.5530000
 164.7210000  71.3200000 160.5530000 164.1136962  72.7467263 160.5530000
 164.6115752  73.6732788 159.4404628 164.0568467  75.0867891 159.6630727
 164.5643630  76.0502987 158.5950697 164.0124345  77.4614171 158.8158251
 164.5209850  78.4016350 157.7206482 163.9742930  79.8167717 157.8977523
 164.4868685  80.7341607 156.7998112 164.1975855  70.6701111 161.9000708
 164.5164433  71.4880878 163.1444143 163.9743105  70.8484234 164.4188002
 164.4023195  71.7123543 165.5989314 163.8860424  71.1910436 166.9335243
 164.3739724  72.1048103 168.0572741 163.8845094  71.6260682 169.4144483
 164.3723657  72.5370515 170.5283876 164.1661881  70.4493906 159.3866574
 164.5197005  68.9635280 159.2764780 164.1259989  68.0288091 160.4249994
 162.6179551  68.0441187 160.6799279 161.9434240  67.3942166 159.4894070
 160.4350011  67.4649084 159.4980254 159.9548935  66.7693068 158.2265470
 158.4468128  66.7660083 158.1344067 170.6660000  67.0670000 157.4850000
 170.5890455  66.6963397 157.4926543 170.5065611  66.3644972 159.2325043
 172.8729754  74.3016320 160.8418291 173.0131727  72.8982427 159.7764485
 170.7659720  73.4276836 158.7990912 170.6268237  74.8144455 159.8788742
 170.7722239  73.3048512 161.8572884 170.9374698  71.9027144 160.7909043
 168.7533187  72.4707845 159.7165598 168.5968951  73.8740287 160.7743450
 168.7252658  72.3272563 162.7625970 168.7053866  70.9437500 161.6725358
 166.5957068  73.1769578 161.6565596 166.5726052  71.7793389 162.6688530
 166.5873425  70.2769625 160.6023618 166.5813881  71.7224737 159.5852644
 164.3602357  73.2156140 161.4954736 163.0253203  72.6326983 160.4992458
 164.2910002  73.3207926 158.4544638 165.7047742  73.7295952 159.4319588
 164.3609731  75.4465757 160.6541851 162.9605120  75.0572478 159.6506421
 164.2699548  75.6887877 157.6052164 165.6605354  76.0807619 158.6195471
 164.3180479  77.8301915 159.7895017 162.9157292  77.4367877 158.8002742
 164.2245892  78.0148654 156.7393420 165.6170986  78.4262493 157.7423350
 164.2747766  80.2157647 158.8737785 162.8790217  79.8003078 157.8743739
 165.5799208  80.7974951 156.8203196 164.0840697  81.7428999 156.9283585
 164.1838333  80.3698719 155.8123785 164.6520542  69.6789619 161.9811353
 163.1096585  70.5595741 161.7907896 164.0626181  72.4800562 163.0881875
 165.5978946  71.6187973 163.2402741 164.3597371  69.8260534 164.5320741
 162.8794861  70.7840040 164.3715076 164.0395385  72.7373520 165.4494737
 165.4985863  71.7634758 165.6291921 164.2476746  70.1668178 167.0998960
 162.7929449  71.1591222 166.9238867 164.0191845  73.1282743 167.8786315
 165.4694190  72.1408191 168.0541142 164.2387463  70.6051405 169.6021609
 162.7870939  71.5943802 169.4286289 165.4673060  72.5696533 170.5551465
 164.0189238  72.1762630 171.4992081 164.0027895  73.5584462 170.3885654
 164.5790187  70.8802503 158.4703470 163.0809227  70.6012412 159.3699758
 165.5577693  68.8169571 158.9742213 164.0320396  68.6109919 158.3618611
 164.6910450  68.2217473 161.3398266 164.4287210  67.0061249 160.1564306
 162.2435027  69.0674618 160.8249114 162.3868803  67.4986479 161.6014419
 162.2733367  66.3491193 159.4337990 162.2629557  67.8727440 158.5617341
 160.1102828  68.5150481 159.5003643 160.0314417  66.9859961 160.3927257
 160.3261578  65.7376438 158.2093392 160.3717045  67.2701868 157.3437974
 158.0128941  66.2681213 159.0055216 158.1321443  66.2340585 157.2335859
 158.0651053  67.7903538 158.0863582 172.5970000  64.0000000 152.8740000
 162.1820000  75.9640000 162.1710000 168.4498435  78.4672258 163.1098018
 166.9206208  78.4763423 163.1098476 166.3559748  77.0543454 163.1089514
 164.8277844  77.0609019 163.1083803 164.2562430  75.6610000 163.1080000
 162.9020000  75.6610000 163.1080000 164.9064269  74.6287992 163.1074242
 161.9950000  76.5650000 160.3130000 161.6239627  76.5646082 161.4464083
 161.6209482  75.9486945 163.1104991 168.8190424  77.9328952 163.9932020
 168.8197372  77.9319623 162.2282715 166.5572267  79.0159011 162.2274328
 166.5561634  79.0159044 163.9923625 166.7221151  76.5104740 163.9879224
 166.7220361  76.5119952 162.2277225 164.4605586  77.5793983 162.2161832
 164.4607875  77.5788719 164.0016810 162.5097631  76.5543881 163.1080000
 171.1280000  66.7990000 176.4150000 172.5777774  73.9002005 177.8411438
 171.0686515  73.8147848 177.7542115 170.5089757  72.9116163 178.8452000
 169.0102477  72.8560210 178.6783451 168.3911405  71.9892373 179.7513042
 166.8848159  72.1211808 179.6767451 166.2670844  71.3200000 178.5280000
 164.7210000  71.3200000 178.5280000 164.1136962  72.7467263 178.5280000
 164.6115752  73.6732788 177.4154628 164.0568467  75.0867891 177.6380727
 164.5643630  76.0502987 176.5700697 164.0124345  77.4614171 176.7908251
 164.5209850  78.4016350 175.6956482 163.9742930  79.8167717 175.8727523
 164.4868685  80.7341607 174.7748112 164.1975855  70.6701111 179.8750708
 164.5164433  71.4880878 181.1194143 163.9743105  70.8484234 182.3938002
 164.4023195  71.7123543 183.5739314 163.8860424  71.1910436 184.9085243
 164.3739724  72.1048103 186.0322741 163.8845094  71.6260682 187.3894483
 164.3723657  72.5370515 188.5033876 164.1661881  70.4493906 177.3616574
 164.5197005  68.9635280 177.2514780 164.1259989  68.0288091 178.3999994
 162.6179551  68.0441187 178.6549279 161.9434240  67.3942166 177.4644070
 160.4350011  67.4649084 177.4730254 159.9548935  66.7693068 176.2015470
 158.4468128  66.7660083 176.1094067 170.6660000  67.0670000 175.4600000
 170.5890455  66.6963397 175.4676543 170.5065611  66.3644972 177.2075043
 172.8729754  74.3016320 178.8168291 173.0131727  72.8982427 177.7514485
 170.7659720  73.4276836 176.7740912 170.6268237  74.8144455 177.8538742
 170.7722239  73.3048512 179.8322884 170.9374698  71.9027144 178.7659043
 168.7533187  72.4707845 177.6915598 168.5968951  73.8740287 178.7493450
 168.7252658  72.3272563 180.7375970 168.7053866  70.9437500 179.6475358
 166.5957068  73.1769578 179.6315596 166.5726052  71.7793389 180.6438530
 166.5873425  70.2769625 178.5773618 166.5813881  71.7224737 177.5602644
 164.3602357  73.2156140 179.4704736 163.0253203  72.6326983 178.4742458
 164.2910002  73.3207926 176.4294638 165.7047742  73.7295952 177.4069588
 164.3609731  75.4465757 178.6291851 162.9605120  75.0572478 177.6256421
 164.2699548  75.6887877 175.5802164 165.6605354  76.0807619 176.5945471
 164.3180479  77.8301915 177.7645017 162.9157292  77.4367877 176.7752742
 164.2245892  78.0148654 174.7143420 165.6170986  78.4262493 175.7173350
 164.2747766  80.2157647 176.8487785 162.8790217  79.8003078 175.8493739
 165.5799208  80.7974951 174.7953196 164.0840697  81.7428999 174.9033585
 164.1838333  80.3698719 173.7873785 164.6520542  69.6789619 179.9561353
 163.1096585  70.5595741 179.7657896 164.0626181  72.4800562 181.0631875
 165.5978946  71.6187973 181.2152741 164.3597371  69.8260534 182.5070741
 162.8794861  70.7840040 182.3465076 164.0395385  72.7373520 183.4244737
 165.4985863  71.7634758 183.6041921 164.2476746  70.1668178 185.0748960
 162.7929449  71.1591222 184.8988867 164.0191845  73.1282743 185.8536315
 165.4694190  72.1408191 186.0291142 164.2387463  70.6051405 187.5771609
 162.7870939  71.5943802 187.4036289 165.4673060  72.5696533 188.5301465
 164.0189238  72.1762630 189.4742081 164.0027895  73.5584462 188.3635654
 164.5790187  70.8802503 176.4453470 163.0809227  70.6012412 177.3449758
 165.5577693  68.8169571 176.9492213 164.0320396  68.6109919 176.3368611
 164.6910450  68.2217473 179.3148266 164.4287210  67.0061249 178.1314306
 162.2435027  69.0674618 178.7999114 162.3868803  67.4986479 179.5764419
 162.2733367  66.3491193 177.4087990 162.2629557  67.8727440 176.5367341
 160.1102828  68.5150481 177.4753643 160.0314417  66.9859961 178.3677257
 160.3261578  65.7376438 176.1843392 160.3717045  67.2701868 175.3187974
 158.0128941  66.2681213 176.9805216 158.1321443  66.2340585 175.2085859
 158.0651053  67.7903538 176.0613582 172.5970000  64.0000000 170.8490000
 162.1820000  75.9640000 180.1460000 168.4498435  78.4672258 181.0848018
 166.9206208  78.4763423 181.0848476 166.3559748  77.0543454 181.0839514
 164.8277844  77.0609019 181.0833803 164.2562430  75.6610000 181.0830000
 162.9020000  75.6610000 181.0830000 164.9064269  74.6287992 181.0824242
 161.9950000  76.5650000 178.2880000 161.6239627  76.5646082 179.4214083
 161.6209482  75.9486945 181.0854991 168.8190424  77.9328952 181.9682020
 168.8197372  77.9319623 180.2032715 166.5572267  79.0159011 180.2024328
 166.5561634  79.0159044 181.9673625 166.7221151  76.5104740 181.9629224
 166.7220361  76.5119952 180.2027225 164.4605586  77.5793983 180.1911832
 164.4607875  77.5788719 181.9766810 162.5097631  76.5543881 181.0830000
 171.1280000  85.4030000  68.5660000 172.5777774  92.5042005  69.9921438
 171.0686515  92.4187848  69.9052115 170.5089757  91.5156163  70.9962000
 169.0102477  91.4600210  70.8293451 168.3911405  90.5932373  71.9023042
 166.8848159  90.7251808  71.8277451 166.2670844  89.9240000  70.6790000
 164.7210000  89.9240000  70.6790000 164.1136962  91.3507263  70.6790000
 164.6115752  92.2772788  69.5664628 164.0568467  93.6907891  69.7890727
 164.5643630  94.6542987  68.7210697 164.0124345  96.0654171  68.9418251
 164.5209850  97.0056350  67.8466482 163.9742930  98.4207717  68.0237523
 164.4868685  99.3381607  66.9258112 164.1975855  89.2741111  72.0260708
 164.5164433  90.0920878  73.2704143 163.9743105  89.4524234  74.5448002
 164.4023195  90.3163543  75.7249314 163.8860424  89.7950436  77.0595243
 164.3739724  90.7088103  78.1832741 163.8845094  90.2300682  79.5404483
 164.3723657  91.1410515  80.6543876 164.1661881  89.0533906  69.5126574
 164.5197005  87.5675280  69.4024780 164.1259989  86.6328091  70.5509994
 162.6179551  86.6481187  70.8059279 161.9434240  85.9982166  69.6154070
 160.4350011  86.0689084  69.6240254 159.9548935  85.3733068  68.3525470
 158.4468128  85.3700083  68.2604067 170.6660000  85.6710000  67.6110000
 170.5890455  85.3003397  67.6186543 170.5065611  84.9684972  69.3585043
 172.8729754  92.9056320  70.9678291 173.0131727  91.5022427  69.9024485
 170.7659720  92.0316836  68.9250912 170.6268237  93.4184455  70.0048742
 170.7722239  91.9088512  71.9832884 170.9374698  90.5067144  70.9169043
 168.7533187  91.0747845  69.8425598 168.5968951  92.4780287  70.9003450
 168.7252658  90.9312563  72.8885970 168.7053866  89.5477500  71.7985358
 166.5957068  91.7809578  71.7825596 166.5726052  90.3833389  72.7948530
 166.5873425  88.8809625  70.7283618 166.5813881  90.3264737  69.7112644
 164.3602357  91.8196140  71.6214736 163.0253203  91.2366983  70.6252458
 164.2910002  91.9247926  68.5804638 165.7047742  92.3335952  69.5579588
 164.3609731  94.0505757  70.7801851 162.9605120  93.6612478  69.7766421
 164.2699548  94.2927877  67.7312164 165.6605354  94.6847619  68.7455471
 164.3180479  96.4341915  69.9155017 162.9157292  96.0407877  68.9262742
 164.2245892  96.6188654  66.8653420 165.6170986  97.0302493  67.8683350
 164.2747766  98.8197647  68.9997785 162.8790217  98.4043078  68.0003739
 165.5799208  99.4014951  66.9463196 164.0840697 100.3468999  67.0543585
 164.1838333  98.9738719  65.9383785 164.6520542  88.2829619  72.1071353
 163.1096585  89.1635741  71.9167896 164.0626181  91.0840562  73.2141875
 165.5978946  90.2227973  73.3662741 164.3597371  88.4300534  74.6580741
 162.8794861  89.3880040  74.4975076 164.0395385  91.3413520  75.5754737
 165.4985863  90.3674758  75.7551921 164.2476746  88.7708178  77.2258960
 162.7929449  89.7631222  77.0498867 164.0191845  91.7322743  78.0046315
 165.4694190  90.7448191  78.1801142 164.2387463  89.2091405  79.7281609
 162.7870939  90.1983802  79.5546289 165.4673060  91.1736533  80.6811465
 164.0189238  90.7802630  81.6252081 164.0027895  92.1624462  80.5145654
 164.5790187  89.4842503  68.5963470 163.0809227  89.2052412  69.4959758
 165.5577693  87.4209571  69.1002213 164.0320396  87.2149919  68.4878611
 164.6910450  86.8257473  71.4658266 164.4287210  85.6101249  70.2824306
 162.2435027  87.6714618  70.9509114 162.3868803  86.1026479  71.7274419
 162.2733367  84.9531193  69.5597990 162.2629557  86.4767440  68.6877341
 160.1102828  87.1190481  69.6263643 160.0314417  85.5899961  70.5187257
 160.3261578  84.3416438  68.3353392 160.3717045  85.8741868  67.4697974
 158.0128941  84.8721213  69.1315216 158.1321443  84.8380585  67.3595859
 158.0651053  86.3943538  68.2123582 172.5970000  82.6040000  63.0000000
 162.1820000  94.5680000  72.2970000 168.4498435  97.0712258  73.2358018
 166.9206208  97.0803423  73.2358476 166.3559748  95.6583454  73.2349514
 164.8277844  95.6649019  73.2343803 164.2562430  94.2650000  73.2340000
 162.9020000  94.2650000  73.2340000 164.9064269  93.2327992  73.2334242
 161.9950000  95.1690000  70.4390000 161.6239627  95.1686082  71.5724083
 161.6209482  94.5526945  73.2364991 168.8190424  96.5368952  74.1192020
 168.8197372  96.5359623  72.3542715 166.5572267  97.6199011  72.3534328
 166.5561634  97.6199044  74.1183625 166.7221151  95.1144740  74.1139224
 166.7220361  95.1159952  72.3537225 164.4605586  96.1833983  72.3421832
 164.4607875  96.1828719  74.1276810 162.5097631  95.1583881  73.2340000
 171.1280000  85.4030000  86.5410000 172.5777774  92.5042005  87.9671438
 171.0686515  92.4187848  87.8802115 170.5089757  91.5156163  88.9712000
 169.0102477  91.4600210  88.8043451 168.3911405  90.5932373  89.8773042
 166.8848159  90.7251808  89.8027451 166.2670844  89.9240000  88.6540000
 164.7210000  89.9240000  88.6540000 164.1136962  91.3507263  88.6540000
 164.6115752  92.2772788  87.5414628 164.0568467  93.6907891  87.7640727
 164.5643630  94.6542987  86.6960697 164.0124345  96.0654171  86.9168251
 164.5209850  97.0056350  85.8216482 163.9742930  98.4207717  85.9987523
 164.4868685  99.3381607  84.9008112 164.1975855  89.2741111  90.0010708
 164.5164433  90.0920878  91.2454143 163.9743105  89.4524234  92.5198002
 164.4023195  90.3163543  93.6999314 163.8860424  89.7950436  95.0345243
 164.3739724  90.7088103  96.1582741 163.8845094  90.2300682  97.5154483
 164.3723657  91.1410515  98.6293876 164.1661881  89.0533906  87.4876574
 164.5197005  87.5675280  87.3774780 164.1259989  86.6328091  88.5259994
 162.6179551  86.6481187  88.7809279 161.9434240  85.9982166  87.5904070
 160.4350011  86.0689084  87.5990254 159.9548935  85.3733068  86.3275470
 158.4468128  85.3700083  86.2354067 170.6660000  85.6710000  85.5860000
 170.5890455  85.3003397  85.5936543 170.5065611  84.9684972  87.3335043
 172.8729754  92.9056320  88.9428291 173.0131727  91.5022427  87.8774485
 170.7659720  92.0316836  86.9000912 170.6268237  93.4184455  87.9798742
 170.7722239  91.9088512  89.9582884 170.9374698  90.5067144  88.8919043
 168.7533187  91.0747845  87.8175598 168.5968951  92.4780287  88.8753450
 168.7252658  90.9312563  90.8635970 168.7053866  89.5477500  89.7735358
 166.5957068  91.7809578  89.7575596 166.5726052  90.3833389  90.7698530
 166.5873425  88.8809625  88.7033618 166.5813881  90.3264737  87.6862644
 164.3602357  91.8196140  89.5964736 163.0253203  91.2366983  88.6002458
 164.2910002  91.9247926  86.5554638 165.7047742  92.3335952  87.5329588
 164.3609731  94.0505757  88.7551851 162.9605120  93.6612478  87.7516421
 164.2699548  94.2927877  85.7062164 165.6605354  94.6847619  86.7205471
 164.3180479  96.4341915  87.8905017 162.9157292  96.0407877  86.9012742
 164.2245892  96.6188654  84.8403420 165.6170986  97.0302493  85.8433350
 164.2747766  98.8197647  86.9747785 162.8790217  98.4043078  85.9753739
 165.5799208  99.4014951  84.9213196 164.0840697 100.3468999  85.0293585
 164.1838333  98.9738719  83.9133785 164.6520542  88.2829619  90.0821353
 163.1096585  89.1635741  89.8917896 164.0626181  91.0840562  91.1891875
 165.5978946  90.2227973  91.3412741 164.3597371  88.4300534  92.6330741
 162.8794861  89.3880040  92.4725076 164.0395385  91.3413520  93.5504737
 165.4985863  90.3674758  93.7301921 164.2476746  88.7708178  95.2008960
 162.7929449  89.7631222  95.0248867 164.0191845  91.7322743  95.9796315
 165.4694190  90.7448191  96.1551142 164.2387463  89.2091405  97.7031609
 162.7870939  90.1983802  97.5296289 165.4673060  91.1736533  98.6561465
 164.0189238  90.7802630  99.6002081 164.0027895  92.1624462  98.4895654
 164.5790187  89.4842503  86.5713470 163.0809227  89.2052412  87.4709758
 165.5577693  87.4209571  87.0752213 164.0320396  87.2149919  86.4628611
 164.6910450  86.8257473  89.4408266 164.4287210  85.6101249  88.2574306
 162.2435027  87.6714618  88.9259114 162.3868803  86.1026479  89.7024419
 162.2733367  84.9531193  87.5347990 162.2629557  86.4767440  86.6627341
 160.1102828  87.1190481  87.6013643 160.0314417  85.5899961  88.4937257
 160.3261578  84.3416438  86.3103392 160.3717045  85.8741868  85.4447974
 158.0128941  84.8721213  87.1065216 158.1321443  84.8380585  85.3345859
 158.0651053  86.3943538  86.1873582 172.5970000  82.6040000  80.9750000
 162.1820000  94.5680000  90.2720000 168.4498435  97.0712258  91.2108018
 166.9206208  97.0803423  91.2108476 166.3559748  95.6583454  91.2099514
 164.8277844  95.6649019  91.2093803 164.2562430  94.2650000  91.2090000
 162.9020000  94.2650000  91.2090000 164.9064269  93.2327992  91.2084242
 161.9950000  95.1690000  88.4140000 161.6239627  95.1686082  89.5474083
 161.6209482  94.5526945  91.2114991 168.8190424  96.5368952  92.0942020
 168.8197372  96.5359623  90.3292715 166.5572267  97.6199011  90.3284328
 166.5561634  97.6199044  92.0933625 166.7221151  95.1144740  92.0889224
 166.7220361  95.1159952  90.3287225 164.4605586  96.1833983  90.3171832
 164.4607875  96.1828719  92.1026810 162.5097631  95.1583881  91.2090000
 171.1280000  85.4030000 104.5160000 172.5777774  92.5042005 105.9421438
 171.0686515  92.4187848 105.8552115 170.5089757  91.5156163 106.9462000
 169.0102477  91.4600210 106.7793451 168.3911405  90.5932373 107.8523042
 166.8848159  90.7251808 107.7777451 166.2670844  89.9240000 106.6290000
 164.7210000  89.9240000 106.6290000 164.1136962  91.3507263 106.6290000
 164.6115752  92.2772788 105.5164628 164.0568467  93.6907891 105.7390727
 164.5643630  94.6542987 104.6710697 164.0124345  96.0654171 104.8918251
 164.5209850  97.0056350 103.7966482 163.9742930  98.4207717 103.9737523
 164.4868685  99.3381607 102.8758112 164.1975855  89.2741111 107.9760708
 164.5164433  90.0920878 109.2204143 163.9743105  89.4524234 110.4948002
 164.4023195  90.3163543 111.6749314 163.8860424  89.7950436 113.0095243
 164.3739724  90.7088103 114.1332741 163.8845094  90.2300682 115.4904483
 164.3723657  91.1410515 116.6043876 164.1661881  89.0533906 105.4626574
 164.5197005  87.5675280 105.3524780 164.1259989  86.6328091 106.5009994
 162.6179551  86.6481187 106.7559279 161.9434240  85.9982166 105.5654070
 160.4350011  86.0689084 105.5740254 159.9548935  85.3733068 104.3025470
 158.4468128  85.3700083 104.2104067 170.6660000  85.6710000 103.5610000
 170.5890455  85.3003397 103.5686543 170.5065611  84.9684972 105.3085043
 172.8729754  92.9056320 106.9178291 173.0131727  91.5022427 105.8524485
 170.7659720  92.0316836 104.8750912 170.6268237  93.4184455 105.9548742
 170.7722239  91.9088512 107.9332884 170.9374698  90.5067144 106.8669043
 168.7533187  91.0747845 105.7925598 168.5968951  92.4780287 106.8503450
 168.7252658  90.9312563 108.8385970 168.7053866  89.5477500 107.7485358
 166.5957068  91.7809578 107.7325596 166.5726052  90.3833389 108.7448530
 166.5873425  88.8809625 106.6783618 166.5813881  90.3264737 105.6612644
 164.3602357  91.8196140 107.5714736 163.0253203  91.2366983 106.5752458
 164.2910002  91.9247926 104.5304638 165.7047742  92.3335952 105.5079588
 164.3609731  94.0505757 106.7301851 162.9605120  93.6612478 105.7266421
 164.2699548  94.2927877 103.6812164 165.6605354  94.6847619 104.6955471
 164.3180479  96.4341915 105.8655017 162.9157292  96.0407877 104.8762742
 164.2245892  96.6188654 102.8153420 165.6170986  97.0302493 103.8183350
 164.2747766  98.8197647 104.9497785 162.8790217  98.4043078 103.9503739
 165.5799208  99.4014951 102.8963196 164.0840697 100.3468999 103.0043585
 164.1838333  98.9738719 101.8883785 164.6520542  88.2829619 108.0571353
 163.1096585  89.1635741 107.8667896 164.0626181  91.0840562 109.1641875
 165.5978946  90.2227973 109.3162741 164.3597371  88.4300534 110.6080741
 162.8794861  89.3880040 110.4475076 164.0395385  91.3413520 111.5254737
 165.4985863  90.3674758 111.7051921 164.2476746  88.7708178 113.1758960
 162.7929449  89.7631222 112.9998867 164.0191845  91.7322743 113.9546315
 165.4694190  90.7448191 114.1301142 164.2387463  89.2091405 115.6781609
 162.7870939  90.1983802 115.5046289 165.4673060  91.1736533 116.6311465
 164.0189238  90.7802630 117.5752081 164.0027895  92.1624462 116.4645654
 164.5790187  89.4842503 104.5463470 163.0809227  89.2052412 105.4459758
 165.5577693  87.4209571 105.0502213 164.0320396  87.2149919 104.4378611
 164.6910450  86.8257473 107.4158266 164.4287210  85.6101249 106.2324306
 162.2435027  87.6714618 106.9009114 162.3868803  86.1026479 107.6774419
 162.2733367  84.9531193 105.5097990 162.2629557  86.4767440 104.6377341
 160.1102828  87.1190481 105.5763643 160.0314417  85.5899961 106.4687257
 160.3261578  84.3416438 104.2853392 160.3717045  85.8741868 103.4197974
 158.0128941  84.8721213 105.0815216 158.1321443  84.8380585 103.3095859
 158.0651053  86.3943538 104.1623582 172.5970000  82.6040000  98.9500000
 162.1820000  94.5680000 108.2470000 168.4498435  97.0712258 109.1858018
 166.9206208  97.0803423 109.1858476 166.3559748  95.6583454 109.1849514
 164.8277844  95.6649019 109.1843803 164.2562430  94.2650000 109.1840000
 162.9020000  94.2650000 109.1840000 164.9064269  93.2327992 109.1834242
 161.9950000  95.1690000 106.3890000 161.6239627  95.1686082 107.5224083
 161.6209482  94.5526945 109.1864991 168.8190424  96.5368952 110.0692020
 168.8197372  96.5359623 108.3042715 166.5572267  97.6199011 108.3034328
 166.5561634  97.6199044 110.0683625 166.7221151  95.1144740 110.0639224
 166.7220361  95.1159952 108.3037225 164.4605586  96.1833983 108.2921832
 164.4607875  96.1828719 110.0776810 162.5097631  95.1583881 109.1840000
 171.1280000  85.4030000 122.4900000 172.5777774  92.5042005 123.9161438
 171.0686515  92.4187848 123.8292115 170.5089757  91.5156163 124.9202000
 169.0102477  91.4600210 124.7533451 168.3911405  90.5932373 125.8263042
 166.8848159  90.7251808 125.7517451 166.2670844  89.9240000 124.6030000
 164.7210000  89.9240000 124.6030000 164.1136962  91.3507263 124.6030000
 164.6115752  92.2772788 123.4904628 164.0568467  93.6907891 123.7130727
 164.5643630  94.6542987 122.6450697 164.0124345  96.0654171 122.8658251
 164.5209850  97.0056350 121.7706482 163.9742930  98.4207717 121.9477523
 164.4868685  99.3381607 120.8498112 164.1975855  89.2741111 125.9500708
 164.5164433  90.0920878 127.1944143 163.9743105  89.4524234 128.4688002
 164.4023195  90.3163543 129.6489314 163.8860424  89.7950436 130.9835243
 164.3739724  90.7088103 132.1072741 163.8845094  90.2300682 133.4644483
 164.3723657  91.1410515 134.5783876 164.1661881  89.0533906 123.4366574
 164.5197005  87.5675280 123.3264780 164.1259989  86.6328091 124.4749994
 162.6179551  86.6481187 124.7299279 161.9434240  85.9982166 123.5394070
 160.4350011  86.0689084 123.5480254 159.9548935  85.3733068 122.2765470
 158.4468128  85.3700083 122.1844067 170.6660000  85.6710000 121.5350000
 170.5890455  85.3003397 121.5426543 170.5065611  84.9684972 123.2825043
 172.8729754  92.9056320 124.8918291 173.0131727  91.5022427 123.8264485
 170.7659720  92.0316836 122.8490912 170.6268237  93.4184455 123.9288742
 170.7722239  91.9088512 125.9072884 170.9374698  90.5067144 124.8409043
 168.7533187  91.0747845 123.7665598 168.5968951  92.4780287 124.8243450
 168.7252658  90.9312563 126.8125970 168.7053866  89.5477500 125.7225358
 166.5957068  91.7809578 125.7065596 166.5726052  90.3833389 126.7188530
 166.5873425  88.8809625 124.6523618 166.5813881  90.3264737 123.6352644
 164.3602357  91.8196140 125.5454736 163.0253203  91.2366983 124.5492458
 164.2910002  91.9247926 122.5044638 165.7047742  92.3335952 123.4819588
 164.3609731  94.0505757 124.7041851 162.9605120  93.6612478 123.7006421
 164.2699548  94.2927877 121.6552164 165.6605354  94.6847619 122.6695471
 164.3180479  96.4341915 123.8395017 162.9157292  96.0407877 122.8502742
 164.2245892  96.6188654 120.7893420 165.6170986  97.0302493 121.7923350
 164.2747766  98.8197647 122.9237785 162.8790217  98.4043078 121.9243739
 165.5799208  99.4014951 120.8703196 164.0840697 100.3468999 120.9783585
 164.1838333  98.9738719 119.8623785 164.6520542  88.2829619 126.0311353
 163.1096585  89.1635741 125.8407896 164.0626181  91.0840562 127.1381875
 165.5978946  90.2227973 127.2902741 164.3597371  88.4300534 128.5820741
 162.8794861  89.3880040 128.4215076 164.0395385  91.3413520 129.4994737
 165.4985863  90.3674758 129.6791921 164.2476746  88.7708178 131.1498960
 162.7929449  89.7631222 130.9738867 164.0191845  91.7322743 131.9286315
 165.4694190  90.7448191 132.1041142 164.2387463  89.2091405 133.6521609
 162.7870939  90.1983802 133.4786289 165.4673060  91.1736533 134.6051465
 164.0189238  90.7802630 135.5492081 164.0027895  92.1624462 134.4385654
 164.5790187  89.4842503 122.5203470 163.0809227  89.2052412 123.4199758
 165.5577693  87.4209571 123.0242213 164.0320396  87.2149919 122.4118611
 164.6910450  86.8257473 125.3898266 164.4287210  85.6101249 124.2064306
 162.2435027  87.6714618 124.8749114 162.3868803  86.1026479 125.6514419
 162.2733367  84.9531193 123.4837990 162.2629557  86.4767440 122.6117341
 160.1102828  87.1190481 123.5503643 160.0314417  85.5899961 124.4427257
 160.3261578  84.3416438 122.2593392 160.3717045  85.8741868 121.3937974
 158.0128941  84.8721213 123.0555216 158.1321443  84.8380585 121.2835859
 158.0651053  86.3943538 122.1363582 172.5970000  82.6040000 116.9240000
 162.1820000  94.5680000 126.2210000 168.4498435  97.0712258 127.1598018
 166.9206208  97.0803423 127.1598476 166.3559748  95.6583454 127.1589514
 164.8277844  95.6649019 127.1583803 164.2562430  94.2650000 127.1580000
 162.9020000  94.2650000 127.1580000 164.9064269  93.2327992 127.1574242
 161.9950000  95.1690000 124.3630000 161.6239627  95.1686082 125.4964083
 161.6209482  94.5526945 127.1604991 168.8190424  96.5368952 128.0432020
 168.8197372  96.5359623 126.2782715 166.5572267  97.6199011 126.2774328
 166.5561634  97.6199044 128.0423625 166.7221151  95.1144740 128.0379224
 166.7220361  95.1159952 126.2777225 164.4605586  96.1833983 126.2661832
 164.4607875  96.1828719 128.0516810 162.5097631  95.1583881 127.1580000
 171.1280000  85.4030000 140.4650000 172.5777774  92.5042005 141.8911438
 171.0686515  92.4187848 141.8042115 170.5089757  91.5156163 142.8952000
 169.0102477  91.4600210 142.7283451 168.3911405  90.5932373 143.8013042
 166.8848159  90.7251808 143.7267451 166.2670844  89.9240000 142.5780000
 164.7210000  89.9240000 142.5780000 164.1136962  91.3507263 142.5780000
 164.6115752  92.2772788 141.4654628 164.0568467  93.6907891 141.6880727
 164.5643630  94.6542987 140.6200697 164.0124345  96.0654171 140.8408251
 164.5209850  97.0056350 139.7456482 163.9742930  98.4207717 139.9227523
 164.4868685  99.3381607 138.8248112 164.1975855  89.2741111 143.9250708
 164.5164433  90.0920878 145.1694143 163.9743105  89.4524234 146.4438002
 164.4023195  90.3163543 147.6239314 163.8860424  89.7950436 148.9585243
 164.3739724  90.7088103 150.0822741 163.8845094  90.2300682 151.4394483
 164.3723657  91.1410515 152.5533876 164.1661881  89.0533906 141.4116574
 164.5197005  87.5675280 141.3014780 164.1259989  86.6328091 142.4499994
 162.6179551  86.6481187 142.7049279 161.9434240  85.9982166 141.5144070
 160.4350011  86.0689084 141.5230254 159.9548935  85.3733068 140.2515470
 158.4468128  85.3700083 140.1594067 170.6660000  85.6710000 139.5100000
 170.5890455  85.3003397 139.5176543 170.5065611  84.9684972 141.2575043
 172.8729754  92.9056320 142.8668291 173.0131727  91.5022427 141.8014485
 170.7659720  92.0316836 140.8240912 170.6268237  93.4184455 141.9038742
 170.7722239  91.9088512 143.8822884 170.9374698  90.5067144 142.8159043
 168.7533187  91.0747845 141.7415598 168.5968951  92.4780287 142.7993450
 168.7252658  90.9312563 144.7875970 168.7053866  89.5477500 143.6975358
 166.5957068  91.7809578 143.6815596 166.5726052  90.3833389 144.6938530
 166.5873425  88.8809625 142.6273618 166.5813881  90.3264737 141.6102644
 164.3602357  91.8196140 143.5204736 163.0253203  91.2366983 142.5242458
 164.2910002  91.9247926 140.4794638 165.7047742  92.3335952 141.4569588
 164.3609731  94.0505757 142.6791851 162.9605120  93.6612478 141.6756421
 164.2699548  94.2927877 139.6302164 165.6605354  94.6847619 140.6445471
 164.3180479  96.4341915 141.8145017 162.9157292  96.0407877 140.8252742
 164.2245892  96.6188654 138.7643420 165.6170986  97.0302493 139.7673350
 164.2747766  98.8197647 140.8987785 162.8790217  98.4043078 139.8993739
 165.5799208  99.4014951 138.8453196 164.0840697 100.3468999 138.9533585
 164.1838333  98.9738719 137.8373785 164.6520542  88.2829619 144.0061353
 163.1096585  89.1635741 143.8157896 164.0626181  91.0840562 145.1131875
 165.5978946  90.2227973 145.2652741 164.3597371  88.4300534 146.5570741
 162.8794861  89.3880040 146.3965076 164.0395385  91.3413520 147.4744737
 165.4985863  90.3674758 147.6541921 164.2476746  88.7708178 149.1248960
 162.7929449  89.7631222 148.9488867 164.0191845  91.7322743 149.9036315
 165.4694190  90.7448191 150.0791142 164.2387463  89.2091405 151.6271609
 162.7870939  90.1983802 151.4536289 165.4673060  91.1736533 152.5801465
 164.0189238  90.7802630 153.5242081 164.0027895  92.1624462 152.4135654
 164.5790187  89.4842503 140.4953470 163.0809227  89.2052412 141.3949758
 165.5577693  87.4209571 140.9992213 164.0320396  87.2149919 140.3868611
 164.6910450  86.8257473 143.3648266 164.4287210  85.6101249 142.1814306
 162.2435027  87.6714618 142.8499114 162.3868803  86.1026479 143.6264419
 162.2733367  84.9531193 141.4587990 162.2629557  86.4767440 140.5867341
 160.1102828  87.1190481 141.5253643 160.0314417  85.5899961 142.4177257
 160.3261578  84.3416438 140.2343392 160.3717045  85.8741868 139.3687974
 158.0128941  84.8721213 141.0305216 158.1321443  84.8380585 139.2585859
 158.0651053  86.3943538 140.1113582 172.5970000  82.6040000 134.8990000
 162.1820000  94.5680000 144.1960000 168.4498435  97.0712258 145.1348018
 166.9206208  97.0803423 145.1348476 166.3559748  95.6583454 145.1339514
 164.8277844  95.6649019 145.1333803 164.2562430  94.2650000 145.1330000
 162.9020000  94.2650000 145.1330000 164.9064269  93.2327992 145.1324242
 161.9950000  95.1690000 142.3380000 161.6239627  95.1686082 143.4714083
 161.6209482  94.5526945 145.1354991 168.8190424  96.5368952 146.0182020
 168.8197372  96.5359623 144.2532715 166.5572267  97.6199011 144.2524328
 166.5561634  97.6199044 146.0173625 166.7221151  95.1144740 146.0129224
 166.7220361  95.1159952 144.2527225 164.4605586  96.1833983 144.2411832
 164.4607875  96.1828719 146.0266810 162.5097631  95.1583881 145.1330000
 171.1280000  85.4030000 158.4400000 172.5777774  92.5042005 159.8661438
 171.0686515  92.4187848 159.7792115 170.5089757  91.5156163 160.8702000
 169.0102477  91.4600210 160.7033451 168.3911405  90.5932373 161.7763042
 166.8848159  90.7251808 161.7017451 166.2670844  89.9240000 160.5530000
 164.7210000  89.9240000 160.5530000 164.1136962  91.3507263 160.5530000
 164.6115752  92.2772788 159.4404628 164.0568467  93.6907891 159.6630727
 164.5643630  94.6542987 158.5950697 164.0124345  96.0654171 158.8158251
 164.5209850  97.0056350 157.7206482 163.9742930  98.4207717 157.8977523
 164.4868685  99.3381607 156.7998112 164.1975855  89.2741111 161.9000708
 164.5164433  90.0920878 163.1444143 163.9743105  89.4524234 164.4188002
 164.4023195  90.3163543 165.5989314 163.8860424  89.7950436 166.9335243
 164.3739724  90.7088103 168.0572741 163.8845094  90.2300682 169.4144483
 164.3723657  91.1410515 170.5283876 164.1661881  89.0533906 159.3866574
 164.5197005  87.5675280 159.2764780 164.1259989  86.6328091 160.4249994
 162.6179551  86.6481187 160.6799279 161.9434240  85.9982166 159.4894070
 160.4350011  86.0689084 159.4980254 159.9548935  85.3733068 158.2265470
 158.4468128  85.3700083 158.1344067 170.6660000  85.6710000 157.4850000
 170.5890455  85.3003397 157.4926543 170.5065611  84.9684972 159.2325043
 172.8729754  92.9056320 160.8418291 173.0131727  91.5022427 159.7764485
 170.7659720  92.0316836 158.7990912 170.6268237  93.4184455 159.8788742
 170.7722239  91.9088512 161.8572884 170.9374698  90.5067144 160.7909043
 168.7533187  91.0747845 159.7165598 168.5968951  92.4780287 160.7743450
 168.7252658  90.9312563 162.7625970 168.7053866  89.5477500 161.6725358
 166.5957068  91.7809578 161.6565596 166.5726052  90.3833389 162.6688530
 166.5873425  88.8809625 160.6023618 166.5813881  90.3264737 159.5852644
 164.3602357  91.8196140 161.4954736 163.0253203  91.2366983 160.4992458
 164.2910002  91.9247926 158.4544638 165.7047742  92.3335952 159.4319588
 164.3609731  94.0505757 160.6541851 162.9605120  93.6612478 159.6506421
 164.2699548  94.2927877 157.6052164 165.6605354  94.6847619 158.6195471
 164.3180479  96.4341915 159.7895017 162.9157292  96.0407877 158.8002742
 164.2245892  96.6188654 156.7393420 165.6170986  97.0302493 157.7423350
 164.2747766  98.8197647 158.8737785 162.8790217  98.4043078 157.8743739
 165.5799208  99.4014951 156.8203196 164.0840697 100.3468999 156.9283585
 164.1838333  98.9738719 155.8123785 164.6520542  88.2829619 161.9811353
 163.1096585  89.1635741 161.7907896 164.0626181  91.0840562 163.0881875
 165.5978946  90.2227973 163.2402741 164.3597371  88.4300534 164.5320741
 162.8794861  89.3880040 164.3715076 164.0395385  91.3413520 165.4494737
 165.4985863  90.3674758 165.6291921 164.2476746  88.7708178 167.0998960
 162.7929449  89.7631222 166.9238867 164.0191845  91.7322743 167.8786315
 165.4694190  90.7448191 168.0541142 164.2387463  89.2091405 169.6021609
 162.7870939  90.1983802 169.4286289 165.4673060  91.1736533 170.5551465
 164.0189238  90.7802630 171.4992081 164.0027895  92.1624462 170.3885654
 164.5790187  89.4842503 158.4703470 163.0809227  89.2052412 159.3699758
 165.5577693  87.4209571 158.9742213 164.0320396  87.2149919 158.3618611
 164.6910450  86.8257473 161.3398266 164.4287210  85.6101249 160.1564306
 162.2435027  87.6714618 160.8249114 162.3868803  86.1026479 161.6014419
 162.2733367  84.9531193 159.4337990 162.2629557  86.4767440 158.5617341
 160.1102828  87.1190481 159.5003643 160.0314417  85.5899961 160.3927257
 160.3261578  84.3416438 158.2093392 160.3717045  85.8741868 157.3437974
 158.0128941  84.8721213 159.0055216 158.1321443  84.8380585 157.2335859
 158.0651053  86.3943538 158.0863582 172.5970000  82.6040000 152.8740000
 162.1820000  94.5680000 162.1710000 168.4498435  97.0712258 163.1098018
 166.9206208  97.0803423 163.1098476 166.3559748  95.6583454 163.1089514
 164.8277844  95.6649019 163.1083803 164.2562430  94.2650000 163.1080000
 162.9020000  94.2650000 163.1080000 164.9064269  93.2327992 163.1074242
 161.9950000  95.1690000 160.3130000 161.6239627  95.1686082 161.4464083
 161.6209482  94.5526945 163.1104991 168.8190424  96.5368952 163.9932020
 168.8197372  96.5359623 162.2282715 166.5572267  97.6199011 162.2274328
 166.5561634  97.6199044 163.9923625 166.7221151  95.1144740 163.9879224
 166.7220361  95.1159952 162.2277225 164.4605586  96.1833983 162.2161832
 164.4607875  96.1828719 164.0016810 162.5097631  95.1583881 163.1080000
 171.1280000  85.4030000 176.4150000 172.5777774  92.5042005 177.8411438
 171.0686515  92.4187848 177.7542115 170.5089757  91.5156163 178.8452000
 169.0102477  91.4600210 178.6783451 168.3911405  90.5932373 179.7513042
 166.8848159  90.7251808 179.6767451 166.2670844  89.9240000 178.5280000
 164.7210000  89.9240000 178.5280000 164.1136962  91.3507263 178.5280000
 164.6115752  92.2772788 177.4154628 164.0568467  93.6907891 177.6380727
 164.5643630  94.6542987 176.5700697 164.0124345  96.0654171 176.7908251
 164.5209850  97.0056350 175.6956482 163.9742930  98.4207717 175.8727523
 164.4868685  99.3381607 174.7748112 164.1975855  89.2741111 179.8750708
 164.5164433  90.0920878 181.1194143 163.9743105  89.4524234 182.3938002
 164.4023195  90.3163543 183.5739314 163.8860424  89.7950436 184.9085243
 164.3739724  90.7088103 186.0322741 163.8845094  90.2300682 187.3894483
 164.3723657  91.1410515 188.5033876 164.1661881  89.0533906 177.3616574
 164.5197005  87.5675280 177.2514780 164.1259989  86.6328091 178.3999994
 162.6179551  86.6481187 178.6549279 161.9434240  85.9982166 177.4644070
 160.4350011  86.0689084 177.4730254 159.9548935  85.3733068 176.2015470
 158.4468128  85.3700083 176.1094067 170.6660000  85.6710000 175.4600000
 170.5890455  85.3003397 175.4676543 170.5065611  84.9684972 177.2075043
 172.8729754  92.9056320 178.8168291 173.0131727  91.5022427 177.7514485
 170.7659720  92.0316836 176.7740912 170.6268237  93.4184455 177.8538742
 170.7722239  91.9088512 179.8322884 170.9374698  90.5067144 178.7659043
 168.7533187  91.0747845 177.6915598 168.5968951  92.4780287 178.7493450
 168.7252658  90.9312563 180.7375970 168.7053866  89.5477500 179.6475358
 166.5957068  91.7809578 179.6315596 166.5726052  90.3833389 180.6438530
 166.5873425  88.8809625 178.5773618 166.5813881  90.3264737 177.5602644
 164.3602357  91.8196140 179.4704736 163.0253203  91.2366983 178.4742458
 164.2910002  91.9247926 176.4294638 165.7047742  92.3335952 177.4069588
 164.3609731  94.0505757 178.6291851 162.9605120  93.6612478 177.6256421
 164.2699548  94.2927877 175.5802164 165.6605354  94.6847619 176.5945471
 164.3180479  96.4341915 177.7645017 162.9157292  96.0407877 176.7752742
 164.2245892  96.6188654 174.7143420 165.6170986  97.0302493 175.7173350
 164.2747766  98.8197647 176.8487785 162.8790217  98.4043078 175.8493739
 165.5799208  99.4014951 174.7953196 164.0840697 100.3468999 174.9033585
 164.1838333  98.9738719 173.7873785 164.6520542  88.2829619 179.9561353
 163.1096585  89.1635741 179.7657896 164.0626181  91.0840562 181.0631875
 165.5978946  90.2227973 181.2152741 164.3597371  88.4300534 182.5070741
 162.8794861  89.3880040 182.3465076 164.0395385  91.3413520 183.4244737
 165.4985863  90.3674758 183.6041921 164.2476746  88.7708178 185.0748960
 162.7929449  89.7631222 184.8988867 164.0191845  91.7322743 185.8536315
 165.4694190  90.7448191 186.0291142 164.2387463  89.2091405 187.5771609
 162.7870939  90.1983802 187.4036289 165.4673060  91.1736533 188.5301465
 164.0189238  90.7802630 189.4742081 164.0027895  92.1624462 188.3635654
 164.5790187  89.4842503 176.4453470 163.0809227  89.2052412 177.3449758
 165.5577693  87.4209571 176.9492213 164.0320396  87.2149919 176.3368611
 164.6910450  86.8257473 179.3148266 164.4287210  85.6101249 178.1314306
 162.2435027  87.6714618 178.7999114 162.3868803  86.1026479 179.5764419
 162.2733367  84.9531193 177.4087990 162.2629557  86.4767440 176.5367341
 160.1102828  87.1190481 177.4753643 160.0314417  85.5899961 178.3677257
 160.3261578  84.3416438 176.1843392 160.3717045  85.8741868 175.3187974
 158.0128941  84.8721213 176.9805216 158.1321443  84.8380585 175.2085859
 158.0651053  86.3943538 176.0613582 172.5970000  82.6040000 170.8490000
 162.1820000  94.5680000 180.1460000 168.4498435  97.0712258 181.0848018
 166.9206208  97.0803423 181.0848476 166.3559748  95.6583454 181.0839514
 164.8277844  95.6649019 181.0833803 164.2562430  94.2650000 181.0830000
 162.9020000  94.2650000 181.0830000 164.9064269  93.2327992 181.0824242
 161.9950000  95.1690000 178.2880000 161.6239627  95.1686082 179.4214083
 161.6209482  94.5526945 181.0854991 168.8190424  96.5368952 181.9682020
 168.8197372  96.5359623 180.2032715 166.5572267  97.6199011 180.2024328
 166.5561634  97.6199044 181.9673625 166.7221151  95.1144740 181.9629224
 166.7220361  95.1159952 180.2027225 164.4605586  96.1833983 180.1911832
 164.4607875  96.1828719 181.9766810 162.5097631  95.1583881 181.0830000
 171.1280000 104.0060000  68.5660000 172.5777774 111.1072005  69.9921438
 171.0686515 111.0217848  69.9052115 170.5089757 110.1186163  70.9962000
 169.0102477 110.0630210  70.8293451 168.3911405 109.1962373  71.9023042
 166.8848159 109.3281808  71.8277451 166.2670844 108.5270000  70.6790000
 164.7210000 108.5270000  70.6790000 164.1136962 109.9537263  70.6790000
 164.6115752 110.8802788  69.5664628 164.0568467 112.2937891  69.7890727
 164.5643630 113.2572987  68.7210697 164.0124345 114.6684171  68.9418251
 164.5209850 115.6086350  67.8466482 163.9742930 117.0237717  68.0237523
 164.4868685 117.9411607  66.9258112 164.1975855 107.8771111  72.0260708
 164.5164433 108.6950878  73.2704143 163.9743105 108.0554234  74.5448002
 164.4023195 108.9193543  75.7249314 163.8860424 108.3980436  77.0595243
 164.3739724 109.3118103  78.1832741 163.8845094 108.8330682  79.5404483
 164.3723657 109.7440515  80.6543876 164.1661881 107.6563906  69.5126574
 164.5197005 106.1705280  69.4024780 164.1259989 105.2358091  70.5509994
 162.6179551 105.2511187  70.8059279 161.9434240 104.6012166  69.6154070
 160.4350011 104.6719084  69.6240254 159.9548935 103.9763068  68.3525470
 158.4468128 103.9730083  68.2604067 170.6660000 104.2740000  67.6110000
 170.5890455 103.9033397  67.6186543 170.5065611 103.5714972  69.3585043
 172.8729754 111.5086320  70.9678291 173.0131727 110.1052427  69.9024485
 170.7659720 110.6346836  68.9250912 170.6268237 112.0214455  70.0048742
 170.7722239 110.5118512  71.9832884 170.9374698 109.1097144  70.9169043
 168.7533187 109.6777845  69.8425598 168.5968951 111.0810287  70.9003450
 168.7252658 109.5342563  72.8885970 168.7053866 108.1507500  71.7985358
 166.5957068 110.3839578  71.7825596 166.5726052 108.9863389  72.7948530
 166.5873425 107.4839625  70.7283618 166.5813881 108.9294737  69.7112644
 164.3602357 110.4226140  71.6214736 163.0253203 109.8396983  70.6252458
 164.2910002 110.5277926  68.5804638 165.7047742 110.9365952  69.5579588
 164.3609731 112.6535757  70.7801851 162.9605120 112.2642478  69.7766421
 164.2699548 112.8957877  67.7312164 165.6605354 113.2877619  68.7455471
 164.3180479 115.0371915  69.9155017 162.9157292 114.6437877  68.9262742
 164.2245892 115.2218654  66.8653420 165.6170986 115.6332493  67.8683350
 164.2747766 117.4227647  68.9997785 162.8790217 117.0073078  68.0003739
 165.5799208 118.0044951  66.9463196 164.0840697 118.9498999  67.0543585
 164.1838333 117.5768719  65.9383785 164.6520542 106.8859619  72.1071353
 163.1096585 107.7665741  71.9167896 164.0626181 109.6870562  73.2141875
 165.5978946 108.8257973  73.3662741 164.3597371 107.0330534  74.6580741
 162.8794861 107.9910040  74.4975076 164.0395385 109.9443520  75.5754737
 165.4985863 108.9704758  75.7551921 164.2476746 107.3738178  77.2258960
 162.7929449 108.3661222  77.0498867 164.0191845 110.3352743  78.0046315
 165.4694190 109.3478191  78.1801142 164.2387463 107.8121405  79.7281609
 162.7870939 108.8013802  79.5546289 165.4673060 109.7766533  80.6811465
 164.0189238 109.3832630  81.6252081 164.0027895 110.7654462  80.5145654
 164.5790187 108.0872503  68.5963470 163.0809227 107.8082412  69.4959758
 165.5577693 106.0239571  69.1002213 164.0320396 105.8179919  68.4878611
 164.6910450 105.4287473  71.4658266 164.4287210 104.2131249  70.2824306
 162.2435027 106.2744618  70.9509114 162.3868803 104.7056479  71.7274419
 162.2733367 103.5561193  69.5597990 162.2629557 105.0797440  68.6877341
 160.1102828 105.7220481  69.6263643 160.0314417 104.1929961  70.5187257
 160.3261578 102.9446438  68.3353392 160.3717045 104.4771868  67.4697974
 158.0128941 103.4751213  69.1315216 158.1321443 103.4410585  67.3595859
 158.0651053 104.9973538  68.2123582 172.5970000 101.2070000  63.0000000
 162.1820000 113.1710000  72.2970000 168.4498435 115.6742258  73.2358018
 166.9206208 115.6833423  73.2358476 166.3559748 114.2613454  73.2349514
 164.8277844 114.2679019  73.2343803 164.2562430 112.8680000  73.2340000
 162.9020000 112.8680000  73.2340000 164.9064269 111.8357992  73.2334242
 161.9950000 113.7720000  70.4390000 161.6239627 113.7716082  71.5724083
 161.6209482 113.1556945  73.2364991 168.8190424 115.1398952  74.1192020
 168.8197372 115.1389623  72.3542715 166.5572267 116.2229011  72.3534328
 166.5561634 116.2229044  74.1183625 166.7221151 113.7174740  74.1139224
 166.7220361 113.7189952  72.3537225 164.4605586 114.7863983  72.3421832
 164.4607875 114.7858719  74.1276810 162.5097631 113.7613881  73.2340000
 171.1280000 104.0060000  86.5410000 172.5777774 111.1072005  87.9671438
 171.0686515 111.0217848  87.8802115 170.5089757 110.1186163  88.9712000
 169.0102477 110.0630210  88.8043451 168.3911405 109.1962373  89.8773042
 166.8848159 109.3281808  89.8027451 166.2670844 108.5270000  88.6540000
 164.7210000 108.5270000  88.6540000 164.1136962 109.9537263  88.6540000
 164.6115752 110.8802788  87.5414628 164.0568467 112.2937891  87.7640727
 164.5643630 113.2572987  86.6960697 164.0124345 114.6684171  86.9168251
 164.5209850 115.6086350  85.8216482 163.9742930 117.0237717  85.9987523
 164.4868685 117.9411607  84.9008112 164.1975855 107.8771111  90.0010708
 164.5164433 108.6950878  91.2454143 163.9743105 108.0554234  92.5198002
 164.4023195 108.9193543  93.6999314 163.8860424 108.3980436  95.0345243
 164.3739724 109.3118103  96.1582741 163.8845094 108.8330682  97.5154483
 164.3723657 109.7440515  98.6293876 164.1661881 107.6563906  87.4876574
 164.5197005 106.1705280  87.3774780 164.1259989 105.2358091  88.5259994
 162.6179551 105.2511187  88.7809279 161.9434240 104.6012166  87.5904070
 160.4350011 104.6719084  87.5990254 159.9548935 103.9763068  86.3275470
 158.4468128 103.9730083  86.2354067 170.6660000 104.2740000  85.5860000
 170.5890455 103.9033397  85.5936543 170.5065611 103.5714972  87.3335043
 172.8729754 111.5086320  88.9428291 173.0131727 110.1052427  87.8774485
 170.7659720 110.6346836  86.9000912 170.6268237 112.0214455  87.9798742
 170.7722239 110.5118512  89.9582884 170.9374698 109.1097144  88.8919043
 168.7533187 109.6777845  87.8175598 168.5968951 111.0810287  88.8753450
 168.7252658 109.5342563  90.8635970 168.7053866 108.1507500  89.7735358
 166.5957068 110.3839578  89.7575596 166.5726052 108.9863389  90.7698530
 166.5873425 107.4839625  88.7033618 166.5813881 108.9294737  87.6862644
 164.3602357 110.4226140  89.5964736 163.0253203 109.8396983  88.6002458
 164.2910002 110.5277926  86.5554638 165.7047742 110.9365952  87.5329588
 164.3609731 112.6535757  88.7551851 162.9605120 112.2642478  87.7516421
 164.2699548 112.8957877  85.7062164 165.6605354 113.2877619  86.7205471
 164.3180479 115.0371915  87.8905017 162.9157292 114.6437877  86.9012742
 164.2245892 115.2218654  84.8403420 165.6170986 115.6332493  85.8433350
 164.2747766 117.4227647  86.9747785 162.8790217 117.0073078  85.9753739
 165.5799208 118.0044951  84.9213196 164.0840697 118.9498999  85.0293585
 164.1838333 117.5768719  83.9133785 164.6520542 106.8859619  90.0821353
 163.1096585 107.7665741  89.8917896 164.0626181 109.6870562  91.1891875
 165.5978946 108.8257973  91.3412741 164.3597371 107.0330534  92.6330741
 162.8794861 107.9910040  92.4725076 164.0395385 109.9443520  93.5504737
 165.4985863 108.9704758  93.7301921 164.2476746 107.3738178  95.2008960
 162.7929449 108.3661222  95.0248867 164.0191845 110.3352743  95.9796315
 165.4694190 109.3478191  96.1551142 164.2387463 107.8121405  97.7031609
 162.7870939 108.8013802  97.5296289 165.4673060 109.7766533  98.6561465
 164.0189238 109.3832630  99.6002081 164.0027895 110.7654462  98.4895654
 164.5790187 108.0872503  86.5713470 163.0809227 107.8082412  87.4709758
 165.5577693 106.0239571  87.0752213 164.0320396 105.8179919  86.4628611
 164.6910450 105.4287473  89.4408266 164.4287210 104.2131249  88.2574306
 162.2435027 106.2744618  88.9259114 162.3868803 104.7056479  89.7024419
 162.2733367 103.5561193  87.5347990 162.2629557 105.0797440  86.6627341
 160.1102828 105.7220481  87.6013643 160.0314417 104.1929961  88.4937257
 160.3261578 102.9446438  86.3103392 160.3717045 104.4771868  85.4447974
 158.0128941 103.4751213  87.1065216 158.1321443 103.4410585  85.3345859
 158.0651053 104.9973538  86.1873582 172.5970000 101.2070000  80.9750000
 162.1820000 113.1710000  90.2720000 168.4498435 115.6742258  91.2108018
 166.9206208 115.6833423  91.2108476 166.3559748 114.2613454  91.2099514
 164.8277844 114.2679019  91.2093803 164.2562430 112.8680000  91.2090000
 162.9020000 112.8680000  91.2090000 164.9064269 111.8357992  91.2084242
 161.9950000 113.7720000  88.4140000 161.6239627 113.7716082  89.5474083
 161.6209482 113.1556945  91.2114991 168.8190424 115.1398952  92.0942020
 168.8197372 115.1389623  90.3292715 166.5572267 116.2229011  90.3284328
 166.5561634 116.2229044  92.0933625 166.7221151 113.7174740  92.0889224
 166.7220361 113.7189952  90.3287225 164.4605586 114.7863983  90.3171832
 164.4607875 114.7858719  92.1026810 162.5097631 113.7613881  91.2090000
 171.1280000 104.0060000 104.5160000 172.5777774 111.1072005 105.9421438
 171.0686515 111.0217848 105.8552115 170.5089757 110.1186163 106.9462000
 169.0102477 110.0630210 106.7793451 168.3911405 109.1962373 107.8523042
 166.8848159 109.3281808 107.7777451 166.2670844 108.5270000 106.6290000
 164.7210000 108.5270000 106.6290000 164.1136962 109.9537263 106.6290000
 164.6115752 110.8802788 105.5164628 164.0568467 112.2937891 105.7390727
 164.5643630 113.2572987 104.6710697 164.0124345 114.6684171 104.8918251
 164.5209850 115.6086350 103.7966482 163.9742930 117.0237717 103.9737523
 164.4868685 117.9411607 102.8758112 164.1975855 107.8771111 107.9760708
 164.5164433 108.6950878 109.2204143 163.9743105 108.0554234 110.4948002
 164.4023195 108.9193543 111.6749314 163.8860424 108.3980436 113.0095243
 164.3739724 109.3118103 114.1332741 163.8845094 108.8330682 115.4904483
 164.3723657 109.7440515 116.6043876 164.1661881 107.6563906 105.4626574
 164.5197005 106.1705280 105.3524780 164.1259989 105.2358091 106.5009994
 162.6179551 105.2511187 106.7559279 161.9434240 104.6012166 105.5654070
 160.4350011 104.6719084 105.5740254 159.9548935 103.9763068 104.3025470
 158.4468128 103.9730083 104.2104067 170.6660000 104.2740000 103.5610000
 170.5890455 103.9033397 103.5686543 170.5065611 103.5714972 105.3085043
 172.8729754 111.5086320 106.9178291 173.0131727 110.1052427 105.8524485
 170.7659720 110.6346836 104.8750912 170.6268237 112.0214455 105.9548742
 170.7722239 110.5118512 107.9332884 170.9374698 109.1097144 106.8669043
 168.7533187 109.6777845 105.7925598 168.5968951 111.0810287 106.8503450
 168.7252658 109.5342563 108.8385970 168.7053866 108.1507500 107.7485358
 166.5957068 110.3839578 107.7325596 166.5726052 108.9863389 108.7448530
 166.5873425 107.4839625 106.6783618 166.5813881 108.9294737 105.6612644
 164.3602357 110.4226140 107.5714736 163.0253203 109.8396983 106.5752458
 164.2910002 110.5277926 104.5304638 165.7047742 110.9365952 105.5079588
 164.3609731 112.6535757 106.7301851 162.9605120 112.2642478 105.7266421
 164.2699548 112.8957877 103.6812164 165.6605354 113.2877619 104.6955471
 164.3180479 115.0371915 105.8655017 162.9157292 114.6437877 104.8762742
 164.2245892 115.2218654 102.8153420 165.6170986 115.6332493 103.8183350
 164.2747766 117.4227647 104.9497785 162.8790217 117.0073078 103.9503739
 165.5799208 118.0044951 102.8963196 164.0840697 118.9498999 103.0043585
 164.1838333 117.5768719 101.8883785 164.6520542 106.8859619 108.0571353
 163.1096585 107.7665741 107.8667896 164.0626181 109.6870562 109.1641875
 165.5978946 108.8257973 109.3162741 164.3597371 107.0330534 110.6080741
 162.8794861 107.9910040 110.4475076 164.0395385 109.9443520 111.5254737
 165.4985863 108.9704758 111.7051921 164.2476746 107.3738178 113.1758960
 162.7929449 108.3661222 112.9998867 164.0191845 110.3352743 113.9546315
 165.4694190 109.3478191 114.1301142 164.2387463 107.8121405 115.6781609
 162.7870939 108.8013802 115.5046289 165.4673060 109.7766533 116.6311465
 164.0189238 109.3832630 117.5752081 164.0027895 110.7654462 116.4645654
 164.5790187 108.0872503 104.5463470 163.0809227 107.8082412 105.4459758
 165.5577693 106.0239571 105.0502213 164.0320396 105.8179919 104.4378611
 164.6910450 105.4287473 107.4158266 164.4287210 104.2131249 106.2324306
 162.2435027 106.2744618 106.9009114 162.3868803 104.7056479 107.6774419
 162.2733367 103.5561193 105.5097990 162.2629557 105.0797440 104.6377341
 160.1102828 105.7220481 105.5763643 160.0314417 104.1929961 106.4687257
 160.3261578 102.9446438 104.2853392 160.3717045 104.4771868 103.4197974
 158.0128941 103.4751213 105.0815216 158.1321443 103.4410585 103.3095859
 158.0651053 104.9973538 104.1623582 172.5970000 101.2070000  98.9500000
 162.1820000 113.1710000 108.2470000 168.4498435 115.6742258 109.1858018
 166.9206208 115.6833423 109.1858476 166.3559748 114.2613454 109.1849514
 164.8277844 114.2679019 109.1843803 164.2562430 112.8680000 109.1840000
 162.9020000 112.8680000 109.1840000 164.9064269 111.8357992 109.1834242
 161.9950000 113.7720000 106.3890000 161.6239627 113.7716082 107.5224083
 161.6209482 113.1556945 109.1864991 168.8190424 115.1398952 110.0692020
 168.8197372 115.1389623 108.3042715 166.5572267 116.2229011 108.3034328
 166.5561634 116.2229044 110.0683625 166.7221151 113.7174740 110.0639224
 166.7220361 113.7189952 108.3037225 164.4605586 114.7863983 108.2921832
 164.4607875 114.7858719 110.0776810 162.5097631 113.7613881 109.1840000
 171.1280000 104.0060000 122.4900000 172.5777774 111.1072005 123.9161438
 171.0686515 111.0217848 123.8292115 170.5089757 110.1186163 124.9202000
 169.0102477 110.0630210 124.7533451 168.3911405 109.1962373 125.8263042
 166.8848159 109.3281808 125.7517451 166.2670844 108.5270000 124.6030000
 164.7210000 108.5270000 124.6030000 164.1136962 109.9537263 124.6030000
 164.6115752 110.8802788 123.4904628 164.0568467 112.2937891 123.7130727
 164.5643630 113.2572987 122.6450697 164.0124345 114.6684171 122.8658251
 164.5209850 115.6086350 121.7706482 163.9742930 117.0237717 121.9477523
 164.4868685 117.9411607 120.8498112 164.1975855 107.8771111 125.9500708
 164.5164433 108.6950878 127.1944143 163.9743105 108.0554234 128.4688002
 164.4023195 108.9193543 129.6489314 163.8860424 108.3980436 130.9835243
 164.3739724 109.3118103 132.1072741 163.8845094 108.8330682 133.4644483
 164.3723657 109.7440515 134.5783876 164.1661881 107.6563906 123.4366574
 164.5197005 106.1705280 123.3264780 164.1259989 105.2358091 124.4749994
 162.6179551 105.2511187 124.7299279 161.9434240 104.6012166 123.5394070
 160.4350011 104.6719084 123.5480254 159.9548935 103.9763068 122.2765470
 158.4468128 103.9730083 122.1844067 170.6660000 104.2740000 121.5350000
 170.5890455 103.9033397 121.5426543 170.5065611 103.5714972 123.2825043
 172.8729754 111.5086320 124.8918291 173.0131727 110.1052427 123.8264485
 170.7659720 110.6346836 122.8490912 170.6268237 112.0214455 123.9288742
 170.7722239 110.5118512 125.9072884 170.9374698 109.1097144 124.8409043
 168.7533187 109.6777845 123.7665598 168.5968951 111.0810287 124.8243450
 168.7252658 109.5342563 126.8125970 168.7053866 108.1507500 125.7225358
 166.5957068 110.3839578 125.7065596 166.5726052 108.9863389 126.7188530
 166.5873425 107.4839625 124.6523618 166.5813881 108.9294737 123.6352644
 164.3602357 110.4226140 125.5454736 163.0253203 109.8396983 124.5492458
 164.2910002 110.5277926 122.5044638 165.7047742 110.9365952 123.4819588
 164.3609731 112.6535757 124.7041851 162.9605120 112.2642478 123.7006421
 164.2699548 112.8957877 121.6552164 165.6605354 113.2877619 122.6695471
 164.3180479 115.0371915 123.8395017 162.9157292 114.6437877 122.8502742
 164.2245892 115.2218654 120.7893420 165.6170986 115.6332493 121.7923350
 164.2747766 117.4227647 122.9237785 162.8790217 117.0073078 121.9243739
 165.5799208 118.0044951 120.8703196 164.0840697 118.9498999 120.9783585
 164.1838333 117.5768719 119.8623785 164.6520542 106.8859619 126.0311353
 163.1096585 107.7665741 125.8407896 164.0626181 109.6870562 127.1381875
 165.5978946 108.8257973 127.2902741 164.3597371 107.0330534 128.5820741
 162.8794861 107.9910040 128.4215076 164.0395385 109.9443520 129.4994737
 165.4985863 108.9704758 129.6791921 164.2476746 107.3738178 131.1498960
 162.7929449 108.3661222 130.9738867 164.0191845 110.3352743 131.9286315
 165.4694190 109.3478191 132.1041142 164.2387463 107.8121405 133.6521609
 162.7870939 108.8013802 133.4786289 165.4673060 109.7766533 134.6051465
 164.0189238 109.3832630 135.5492081 164.0027895 110.7654462 134.4385654
 164.5790187 108.0872503 122.5203470 163.0809227 107.8082412 123.4199758
 165.5577693 106.0239571 123.0242213 164.0320396 105.8179919 122.4118611
 164.6910450 105.4287473 125.3898266 164.4287210 104.2131249 124.2064306
 162.2435027 106.2744618 124.8749114 162.3868803 104.7056479 125.6514419
 162.2733367 103.5561193 123.4837990 162.2629557 105.0797440 122.6117341
 160.1102828 105.7220481 123.5503643 160.0314417 104.1929961 124.4427257
 160.3261578 102.9446438 122.2593392 160.3717045 104.4771868 121.3937974
 158.0128941 103.4751213 123.0555216 158.1321443 103.4410585 121.2835859
 158.0651053 104.9973538 122.1363582 172.5970000 101.2070000 116.9240000
 162.1820000 113.1710000 126.2210000 168.4498435 115.6742258 127.1598018
 166.9206208 115.6833423 127.1598476 166.3559748 114.2613454 127.1589514
 164.8277844 114.2679019 127.1583803 164.2562430 112.8680000 127.1580000
 162.9020000 112.8680000 127.1580000 164.9064269 111.8357992 127.1574242
 161.9950000 113.7720000 124.3630000 161.6239627 113.7716082 125.4964083
 161.6209482 113.1556945 127.1604991 168.8190424 115.1398952 128.0432020
 168.8197372 115.1389623 126.2782715 166.5572267 116.2229011 126.2774328
 166.5561634 116.2229044 128.0423625 166.7221151 113.7174740 128.0379224
 166.7220361 113.7189952 126.2777225 164.4605586 114.7863983 126.2661832
 164.4607875 114.7858719 128.0516810 162.5097631 113.7613881 127.1580000
 171.1280000 104.0060000 140.4650000 172.5777774 111.1072005 141.8911438
 171.0686515 111.0217848 141.8042115 170.5089757 110.1186163 142.8952000
 169.0102477 110.0630210 142.7283451 168.3911405 109.1962373 143.8013042
 166.8848159 109.3281808 143.7267451 166.2670844 108.5270000 142.5780000
 164.7210000 108.5270000 142.5780000 164.1136962 109.9537263 142.5780000
 164.6115752 110.8802788 141.4654628 164.0568467 112.2937891 141.6880727
 164.5643630 113.2572987 140.6200697 164.0124345 114.6684171 140.8408251
 164.5209850 115.6086350 139.7456482 163.9742930 117.0237717 139.9227523
 164.4868685 117.9411607 138.8248112 164.1975855 107.8771111 143.9250708
 164.5164433 108.6950878 145.1694143 163.9743105 108.0554234 146.4438002
 164.4023195 108.9193543 147.6239314 163.8860424 108.3980436 148.9585243
 164.3739724 109.3118103 150.0822741 163.8845094 108.8330682 151.4394483
 164.3723657 109.7440515 152.5533876 164.1661881 107.6563906 141.4116574
 164.5197005 106.1705280 141.3014780 164.1259989 105.2358091 142.4499994
 162.6179551 105.2511187 142.7049279 161.9434240 104.6012166 141.5144070
 160.4350011 104.6719084 141.5230254 159.9548935 103.9763068 140.2515470
 158.4468128 103.9730083 140.1594067 170.6660000 104.2740000 139.5100000
 170.5890455 103.9033397 139.5176543 170.5065611 103.5714972 141.2575043
 172.8729754 111.5086320 142.8668291 173.0131727 110.1052427 141.8014485
 170.7659720 110.6346836 140.8240912 170.6268237 112.0214455 141.9038742
 170.7722239 110.5118512 143.8822884 170.9374698 109.1097144 142.8159043
 168.7533187 109.6777845 141.7415598 168.5968951 111.0810287 142.7993450
 168.7252658 109.5342563 144.7875970 168.7053866 108.1507500 143.6975358
 166.5957068 110.3839578 143.6815596 166.5726052 108.9863389 144.6938530
 166.5873425 107.4839625 142.6273618 166.5813881 108.9294737 141.6102644
 164.3602357 110.4226140 143.5204736 163.0253203 109.8396983 142.5242458
 164.2910002 110.5277926 140.4794638 165.7047742 110.9365952 141.4569588
 164.3609731 112.6535757 142.6791851 162.9605120 112.2642478 141.6756421
 164.2699548 112.8957877 139.6302164 165.6605354 113.2877619 140.6445471
 164.3180479 115.0371915 141.8145017 162.9157292 114.6437877 140.8252742
 164.2245892 115.2218654 138.7643420 165.6170986 115.6332493 139.7673350
 164.2747766 117.4227647 140.8987785 162.8790217 117.0073078 139.8993739
 165.5799208 118.0044951 138.8453196 164.0840697 118.9498999 138.9533585
 164.1838333 117.5768719 137.8373785 164.6520542 106.8859619 144.0061353
 163.1096585 107.7665741 143.8157896 164.0626181 109.6870562 145.1131875
 165.5978946 108.8257973 145.2652741 164.3597371 107.0330534 146.5570741
 162.8794861 107.9910040 146.3965076 164.0395385 109.9443520 147.4744737
 165.4985863 108.9704758 147.6541921 164.2476746 107.3738178 149.1248960
 162.7929449 108.3661222 148.9488867 164.0191845 110.3352743 149.9036315
 165.4694190 109.3478191 150.0791142 164.2387463 107.8121405 151.6271609
 162.7870939 108.8013802 151.4536289 165.4673060 109.7766533 152.5801465
 164.0189238 109.3832630 153.5242081 164.0027895 110.7654462 152.4135654
 164.5790187 108.0872503 140.4953470 163.0809227 107.8082412 141.3949758
 165.5577693 106.0239571 140.9992213 164.0320396 105.8179919 140.3868611
 164.6910450 105.4287473 143.3648266 164.4287210 104.2131249 142.1814306
 162.2435027 106.2744618 142.8499114 162.3868803 104.7056479 143.6264419
 162.2733367 103.5561193 141.4587990 162.2629557 105.0797440 140.5867341
 160.1102828 105.7220481 141.5253643 160.0314417 104.1929961 142.4177257
 160.3261578 102.9446438 140.2343392 160.3717045 104.4771868 139.3687974
 158.0128941 103.4751213 141.0305216 158.1321443 103.4410585 139.2585859
 158.0651053 104.9973538 140.1113582 172.5970000 101.2070000 134.8990000
 162.1820000 113.1710000 144.1960000 168.4498435 115.6742258 145.1348018
 166.9206208 115.6833423 145.1348476 166.3559748 114.2613454 145.1339514
 164.8277844 114.2679019 145.1333803 164.2562430 112.8680000 145.1330000
 162.9020000 112.8680000 145.1330000 164.9064269 111.8357992 145.1324242
 161.9950000 113.7720000 142.3380000 161.6239627 113.7716082 143.4714083
 161.6209482 113.1556945 145.1354991 168.8190424 115.1398952 146.0182020
 168.8197372 115.1389623 144.2532715 166.5572267 116.2229011 144.2524328
 166.5561634 116.2229044 146.0173625 166.7221151 113.7174740 146.0129224
 166.7220361 113.7189952 144.2527225 164.4605586 114.7863983 144.2411832
 164.4607875 114.7858719 146.0266810 162.5097631 113.7613881 145.1330000
 171.1280000 104.0060000 158.4400000 172.5777774 111.1072005 159.8661438
 171.0686515 111.0217848 159.7792115 170.5089757 110.1186163 160.8702000
 169.0102477 110.0630210 160.7033451 168.3911405 109.1962373 161.7763042
 166.8848159 109.3281808 161.7017451 166.2670844 108.5270000 160.5530000
 164.7210000 108.5270000 160.5530000 164.1136962 109.9537263 160.5530000
 164.6115752 110.8802788 159.4404628 164.0568467 112.2937891 159.6630727
 164.5643630 113.2572987 158.5950697 164.0124345 114.6684171 158.8158251
 164.5209850 115.6086350 157.7206482 163.9742930 117.0237717 157.8977523
 164.4868685 117.9411607 156.7998112 164.1975855 107.8771111 161.9000708
 164.5164433 108.6950878 163.1444143 163.9743105 108.0554234 164.4188002
 164.4023195 108.9193543 165.5989314 163.8860424 108.3980436 166.9335243
 164.3739724 109.3118103 168.0572741 163.8845094 108.8330682 169.4144483
 164.3723657 109.7440515 170.5283876 164.1661881 107.6563906 159.3866574
 164.5197005 106.1705280 159.2764780 164.1259989 105.2358091 160.4249994
 162.6179551 105.2511187 160.6799279 161.9434240 104.6012166 159.4894070
 160.4350011 104.6719084 159.4980254 159.9548935 103.9763068 158.2265470
 158.4468128 103.9730083 158.1344067 170.6660000 104.2740000 157.4850000
 170.5890455 103.9033397 157.4926543 170.5065611 103.5714972 159.2325043
 172.8729754 111.5086320 160.8418291 173.0131727 110.1052427 159.7764485
 170.7659720 110.6346836 158.7990912 170.6268237 112.0214455 159.8788742
 170.7722239 110.5118512 161.8572884 170.9374698 109.1097144 160.7909043
 168.7533187 109.6777845 159.7165598 168.5968951 111.0810287 160.7743450
 168.7252658 109.5342563 162.7625970 168.7053866 108.1507500 161.6725358
 166.5957068 110.3839578 161.6565596 166.5726052 108.9863389 162.6688530
 166.5873425 107.4839625 160.6023618 166.5813881 108.9294737 159.5852644
 164.3602357 110.4226140 161.4954736 163.0253203 109.8396983 160.4992458
 164.2910002 110.5277926 158.4544638 165.7047742 110.9365952 159.4319588
 164.3609731 112.6535757 160.6541851 162.9605120 112.2642478 159.6506421
 164.2699548 112.8957877 157.6052164 165.6605354 113.2877619 158.6195471
 164.3180479 115.0371915 159.7895017 162.9157292 114.6437877 158.8002742
 164.2245892 115.2218654 156.7393420 165.6170986 115.6332493 157.7423350
 164.2747766 117.4227647 158.8737785 162.8790217 117.0073078 157.8743739
 165.5799208 118.0044951 156.8203196 164.0840697 118.9498999 156.9283585
 164.1838333 117.5768719 155.8123785 164.6520542 106.8859619 161.9811353
 163.1096585 107.7665741 161.7907896 164.0626181 109.6870562 163.0881875
 165.5978946 108.8257973 163.2402741 164.3597371 107.0330534 164.5320741
 162.8794861 107.9910040 164.3715076 164.0395385 109.9443520 165.4494737
 165.4985863 108.9704758 165.6291921 164.2476746 107.3738178 167.0998960
 162.7929449 108.3661222 166.9238867 164.0191845 110.3352743 167.8786315
 165.4694190 109.3478191 168.0541142 164.2387463 107.8121405 169.6021609
 162.7870939 108.8013802 169.4286289 165.4673060 109.7766533 170.5551465
 164.0189238 109.3832630 171.4992081 164.0027895 110.7654462 170.3885654
 164.5790187 108.0872503 158.4703470 163.0809227 107.8082412 159.3699758
 165.5577693 106.0239571 158.9742213 164.0320396 105.8179919 158.3618611
 164.6910450 105.4287473 161.3398266 164.4287210 104.2131249 160.1564306
 162.2435027 106.2744618 160.8249114 162.3868803 104.7056479 161.6014419
 162.2733367 103.5561193 159.4337990 162.2629557 105.0797440 158.5617341
 160.1102828 105.7220481 159.5003643 160.0314417 104.1929961 160.3927257
 160.3261578 102.9446438 158.2093392 160.3717045 104.4771868 157.3437974
 158.0128941 103.4751213 159.0055216 158.1321443 103.4410585 157.2335859
 158.0651053 104.9973538 158.0863582 172.5970000 101.2070000 152.8740000
 162.1820000 113.1710000 162.1710000 168.4498435 115.6742258 163.1098018
 166.9206208 115.6833423 163.1098476 166.3559748 114.2613454 163.1089514
 164.8277844 114.2679019 163.1083803 164.2562430 112.8680000 163.1080000
 162.9020000 112.8680000 163.1080000 164.9064269 111.8357992 163.1074242
 161.9950000 113.7720000 160.3130000 161.6239627 113.7716082 161.4464083
 161.6209482 113.1556945 163.1104991 168.8190424 115.1398952 163.9932020
 168.8197372 115.1389623 162.2282715 166.5572267 116.2229011 162.2274328
 166.5561634 116.2229044 163.9923625 166.7221151 113.7174740 163.9879224
 166.7220361 113.7189952 162.2277225 164.4605586 114.7863983 162.2161832
 164.4607875 114.7858719 164.0016810 162.5097631 113.7613881 163.1080000
 171.1280000 104.0060000 176.4150000 172.5777774 111.1072005 177.8411438
 171.0686515 111.0217848 177.7542115 170.5089757 110.1186163 178.8452000
 169.0102477 110.0630210 178.6783451 168.3911405 109.1962373 179.7513042
 166.8848159 109.3281808 179.6767451 166.2670844 108.5270000 178.5280000
 164.7210000 108.5270000 178.5280000 164.1136962 109.9537263 178.5280000
 164.6115752 110.8802788 177.4154628 164.0568467 112.2937891 177.6380727
 164.5643630 113.2572987 176.5700697 164.0124345 114.6684171 176.7908251
 164.5209850 115.6086350 175.6956482 163.9742930 117.0237717 175.8727523
 164.4868685 117.9411607 174.7748112 164.1975855 107.8771111 179.8750708
 164.5164433 108.6950878 181.1194143 163.9743105 108.0554234 182.3938002
 164.4023195 108.9193543 183.5739314 163.8860424 108.3980436 184.9085243
 164.3739724 109.3118103 186.0322741 163.8845094 108.8330682 187.3894483
 164.3723657 109.7440515 188.5033876 164.1661881 107.6563906 177.3616574
 164.5197005 106.1705280 177.2514780 164.1259989 105.2358091 178.3999994
 162.6179551 105.2511187 178.6549279 161.9434240 104.6012166 177.4644070
 160.4350011 104.6719084 177.4730254 159.9548935 103.9763068 176.2015470
 158.4468128 103.9730083 176.1094067 170.6660000 104.2740000 175.4600000
 170.5890455 103.9033397 175.4676543 170.5065611 103.5714972 177.2075043
 172.8729754 111.5086320 178.8168291 173.0131727 110.1052427 177.7514485
 170.7659720 110.6346836 176.7740912 170.6268237 112.0214455 177.8538742
 170.7722239 110.5118512 179.8322884 170.9374698 109.1097144 178.7659043
 168.7533187 109.6777845 177.6915598 168.5968951 111.0810287 178.7493450
 168.7252658 109.5342563 180.7375970 168.7053866 108.1507500 179.6475358
 166.5957068 110.3839578 179.6315596 166.5726052 108.9863389 180.6438530
 166.5873425 107.4839625 178.5773618 166.5813881 108.9294737 177.5602644
 164.3602357 110.4226140 179.4704736 163.0253203 109.8396983 178.4742458
 164.2910002 110.5277926 176.4294638 165.7047742 110.9365952 177.4069588
 164.3609731 112.6535757 178.6291851 162.9605120 112.2642478 177.6256421
 164.2699548 112.8957877 175.5802164 165.6605354 113.2877619 176.5945471
 164.3180479 115.0371915 177.7645017 162.9157292 114.6437877 176.7752742
 164.2245892 115.2218654 174.7143420 165.6170986 115.6332493 175.7173350
 164.2747766 117.4227647 176.8487785 162.8790217 117.0073078 175.8493739
 165.5799208 118.0044951 174.7953196 164.0840697 118.9498999 174.9033585
 164.1838333 117.5768719 173.7873785 164.6520542 106.8859619 179.9561353
 163.1096585 107.7665741 179.7657896 164.0626181 109.6870562 181.0631875
 165.5978946 108.8257973 181.2152741 164.3597371 107.0330534 182.5070741
 162.8794861 107.9910040 182.3465076 164.0395385 109.9443520 183.4244737
 165.4985863 108.9704758 183.6041921 164.2476746 107.3738178 185.0748960
 162.7929449 108.3661222 184.8988867 164.0191845 110.3352743 185.8536315
 165.4694190 109.3478191 186.0291142 164.2387463 107.8121405 187.5771609
 162.7870939 108.8013802 187.4036289 165.4673060 109.7766533 188.5301465
 164.0189238 109.3832630 189.4742081 164.0027895 110.7654462 188.3635654
 164.5790187 108.0872503 176.4453470 163.0809227 107.8082412 177.3449758
 165.5577693 106.0239571 176.9492213 164.0320396 105.8179919 176.3368611
 164.6910450 105.4287473 179.3148266 164.4287210 104.2131249 178.1314306
 162.2435027 106.2744618 178.7999114 162.3868803 104.7056479 179.5764419
 162.2733367 103.5561193 177.4087990 162.2629557 105.0797440 176.5367341
 160.1102828 105.7220481 177.4753643 160.0314417 104.1929961 178.3677257
 160.3261578 102.9446438 176.1843392 160.3717045 104.4771868 175.3187974
 158.0128941 103.4751213 176.9805216 158.1321443 103.4410585 175.2085859
 158.0651053 104.9973538 176.0613582 172.5970000 101.2070000 170.8490000
 162.1820000 113.1710000 180.1460000 168.4498435 115.6742258 181.0848018
 166.9206208 115.6833423 181.0848476 166.3559748 114.2613454 181.0839514
 164.8277844 114.2679019 181.0833803 164.2562430 112.8680000 181.0830000
 162.9020000 112.8680000 181.0830000 164.9064269 111.8357992 181.0824242
 161.9950000 113.7720000 178.2880000 161.6239627 113.7716082 179.4214083
 161.6209482 113.1556945 181.0854991 168.8190424 115.1398952 181.9682020
 168.8197372 115.1389623 180.2032715 166.5572267 116.2229011 180.2024328
 166.5561634 116.2229044 181.9673625 166.7221151 113.7174740 181.9629224
 166.7220361 113.7189952 180.2027225 164.4605586 114.7863983 180.1911832
 164.4607875 114.7858719 181.9766810 162.5097631 113.7613881 181.0830000
 171.1280000 122.6100000  68.5660000 172.5777774 129.7112005  69.9921438
 171.0686515 129.6257848  69.9052115 170.5089757 128.7226163  70.9962000
 169.0102477 128.6670210  70.8293451 168.3911405 127.8002373  71.9023042
 166.8848159 127.9321808  71.8277451 166.2670844 127.1310000  70.6790000
 164.7210000 127.1310000  70.6790000 164.1136962 128.5577263  70.6790000
 164.6115752 129.4842788  69.5664628 164.0568467 130.8977891  69.7890727
 164.5643630 131.8612987  68.7210697 164.0124345 133.2724171  68.9418251
 164.5209850 134.2126350  67.8466482 163.9742930 135.6277717  68.0237523
 164.4868685 136.5451607  66.9258112 164.1975855 126.4811111  72.0260708
 164.5164433 127.2990878  73.2704143 163.9743105 126.6594234  74.5448002
 164.4023195 127.5233543  75.7249314 163.8860424 127.0020436  77.0595243
 164.3739724 127.9158103  78.1832741 163.8845094 127.4370682  79.5404483
 164.3723657 128.3480515  80.6543876 164.1661881 126.2603906  69.5126574
 164.5197005 124.7745280  69.4024780 164.1259989 123.8398091  70.5509994
 162.6179551 123.8551187  70.8059279 161.9434240 123.2052166  69.6154070
 160.4350011 123.2759084  69.6240254 159.9548935 122.5803068  68.3525470
 158.4468128 122.5770083  68.2604067 170.6660000 122.8780000  67.6110000
 170.5890455 122.5073397  67.6186543 170.5065611 122.1754972  69.3585043
 172.8729754 130.1126320  70.9678291 173.0131727 128.7092427  69.9024485
 170.7659720 129.2386836  68.9250912 170.6268237 130.6254455  70.0048742
 170.7722239 129.1158512  71.9832884 170.9374698 127.7137144  70.9169043
 168.7533187 128.2817845  69.8425598 168.5968951 129.6850287  70.9003450
 168.7252658 128.1382563  72.8885970 168.7053866 126.7547500  71.7985358
 166.5957068 128.9879578  71.7825596 166.5726052 127.5903389  72.7948530
 166.5873425 126.0879625  70.7283618 166.5813881 127.5334737  69.7112644
 164.3602357 129.0266140  71.6214736 163.0253203 128.4436983  70.6252458
 164.2910002 129.1317926  68.5804638 165.7047742 129.5405952  69.5579588
 164.3609731 131.2575757  70.7801851 162.9605120 130.8682478  69.7766421
 164.2699548 131.4997877  67.7312164 165.6605354 131.8917619  68.7455471
 164.3180479 133.6411915  69.9155017 162.9157292 133.2477877  68.9262742
 164.2245892 133.8258654  66.8653420 165.6170986 134.2372493  67.8683350
 164.2747766 136.0267647  68.9997785 162.8790217 135.6113078  68.0003739
 165.5799208 136.6084951  66.9463196 164.0840697 137.5538999  67.0543585
 164.1838333 136.1808719  65.9383785 164.6520542 125.4899619  72.1071353
 163.1096585 126.3705741  71.9167896 164.0626181 128.2910562  73.2141875
 165.5978946 127.4297973  73.3662741 164.3597371 125.6370534  74.6580741
 162.8794861 126.5950040  74.4975076 164.0395385 128.5483520  75.5754737
 165.4985863 127.5744758  75.7551921 164.2476746 125.9778178  77.2258960
 162.7929449 126.9701222  77.0498867 164.0191845 128.9392743  78.0046315
 165.4694190 127.9518191  78.1801142 164.2387463 126.4161405  79.7281609
 162.7870939 127.4053802  79.5546289 165.4673060 128.3806533  80.6811465
 164.0189238 127.9872630  81.6252081 164.0027895 129.3694462  80.5145654
 164.5790187 126.6912503  68.5963470 163.0809227 126.4122412  69.4959758
 165.5577693 124.6279571  69.1002213 164.0320396 124.4219919  68.4878611
 164.6910450 124.0327473  71.4658266 164.4287210 122.8171249  70.2824306
 162.2435027 124.8784618  70.9509114 162.3868803 123.3096479  71.7274419
 162.2733367 122.1601193  69.5597990 162.2629557 123.6837440  68.6877341
 160.1102828 124.3260481  69.6263643 160.0314417 122.7969961  70.5187257
 160.3261578 121.5486438  68.3353392 160.3717045 123.0811868  67.4697974
 158.0128941 122.0791213  69.1315216 158.1321443 122.0450585  67.3595859
 158.0651053 123.6013538  68.2123582 172.5970000 119.8110000  63.0000000
 162.1820000 131.7750000  72.2970000 168.4498435 134.2782258  73.2358018
 166.9206208 134.2873423  73.2358476 166.3559748 132.8653454  73.2349514
 164.8277844 132.8719019  73.2343803 164.2562430 131.4720000  73.2340000
 162.9020000 131.4720000  73.2340000 164.9064269 130.4397992  73.2334242
 161.9950000 132.3760000  70.4390000 161.6239627 132.3756082  71.5724083
 161.6209482 131.7596945  73.2364991 168.8190424 133.7438952  74.1192020
 168.8197372 133.7429623  72.3542715 166.5572267 134.8269011  72.3534328
 166.5561634 134.8269044  74.1183625 166.7221151 132.3214740  74.1139224
 166.7220361 132.3229952  72.3537225 164.4605586 133.3903983  72.3421832
 164.4607875 133.3898719  74.1276810 162.5097631 132.3653881  73.2340000
 171.1280000 122.6100000  86.5410000 172.5777774 129.7112005  87.9671438
 171.0686515 129.6257848  87.8802115 170.5089757 128.7226163  88.9712000
 169.0102477 128.6670210  88.8043451 168.3911405 127.8002373  89.8773042
 166.8848159 127.9321808  89.8027451 166.2670844 127.1310000  88.6540000
 164.7210000 127.1310000  88.6540000 164.1136962 128.5577263  88.6540000
 164.6115752 129.4842788  87.5414628 164.0568467 130.8977891  87.7640727
 164.5643630 131.8612987  86.6960697 164.0124345 133.2724171  86.9168251
 164.5209850 134.2126350  85.8216482 163.9742930 135.6277717  85.9987523
 164.4868685 136.5451607  84.9008112 164.1975855 126.4811111  90.0010708
 164.5164433 127.2990878  91.2454143 163.9743105 126.6594234  92.5198002
 164.4023195 127.5233543  93.6999314 163.8860424 127.0020436  95.0345243
 164.3739724 127.9158103  96.1582741 163.8845094 127.4370682  97.5154483
 164.3723657 128.3480515  98.6293876 164.1661881 126.2603906  87.4876574
 164.5197005 124.7745280  87.3774780 164.1259989 123.8398091  88.5259994
 162.6179551 123.8551187  88.7809279 161.9434240 123.2052166  87.5904070
 160.4350011 123.2759084  87.5990254 159.9548935 122.5803068  86.3275470
 158.4468128 122.5770083  86.2354067 170.6660000 122.8780000  85.5860000
 170.5890455 122.5073397  85.5936543 170.5065611 122.1754972  87.3335043
 172.8729754 130.1126320  88.9428291 173.0131727 128.7092427  87.8774485
 170.7659720 129.2386836  86.9000912 170.6268237 130.6254455  87.9798742
 170.7722239 129.1158512  89.9582884 170.9374698 127.7137144  88.8919043
 168.7533187 128.2817845  87.8175598 168.5968951 129.6850287  88.8753450
 168.7252658 128.1382563  90.8635970 168.7053866 126.7547500  89.7735358
 166.5957068 128.9879578  89.7575596 166.5726052 127.5903389  90.7698530
 166.5873425 126.0879625  88.7033618 166.5813881 127.5334737  87.6862644
 164.3602357 129.0266140  89.5964736 163.0253203 128.4436983  88.6002458
 164.2910002 129.1317926  86.5554638 165.7047742 129.5405952  87.5329588
 164.3609731 131.2575757  88.7551851 162.9605120 130.8682478  87.7516421
 164.2699548 131.4997877  85.7062164 165.6605354 131.8917619  86.7205471
 164.3180479 133.6411915  87.8905017 162.9157292 133.2477877  86.9012742
 164.2245892 133.8258654  84.8403420 165.6170986 134.2372493  85.8433350
 164.2747766 136.0267647  86.9747785 162.8790217 135.6113078  85.9753739
 165.5799208 136.6084951  84.9213196 164.0840697 137.5538999  85.0293585
 164.1838333 136.1808719  83.9133785 164.6520542 125.4899619  90.0821353
 163.1096585 126.3705741  89.8917896 164.0626181 128.2910562  91.1891875
 165.5978946 127.4297973  91.3412741 164.3597371 125.6370534  92.6330741
 162.8794861 126.5950040  92.4725076 164.0395385 128.5483520  93.5504737
 165.4985863 127.5744758  93.7301921 164.2476746 125.9778178  95.2008960
 162.7929449 126.9701222  95.0248867 164.0191845 128.9392743  95.9796315
 165.4694190 127.9518191  96.1551142 164.2387463 126.4161405  97.7031609
 162.7870939 127.4053802  97.5296289 165.4673060 128.3806533  98.6561465
 164.0189238 127.9872630  99.6002081 164.0027895 129.3694462  98.4895654
 164.5790187 126.6912503  86.5713470 163.0809227 126.4122412  87.4709758
 165.5577693 124.6279571  87.0752213 164.0320396 124.4219919  86.4628611
 164.6910450 124.0327473  89.4408266 164.4287210 122.8171249  88.2574306
 162.2435027 124.8784618  88.9259114 162.3868803 123.3096479  89.7024419
 162.2733367 122.1601193  87.5347990 162.2629557 123.6837440  86.6627341
 160.1102828 124.3260481  87.6013643 160.0314417 122.7969961  88.4937257
 160.3261578 121.5486438  86.3103392 160.3717045 123.0811868  85.4447974
 158.0128941 122.0791213  87.1065216 158.1321443 122.0450585  85.3345859
 158.0651053 123.6013538  86.1873582 172.5970000 119.8110000  80.9750000
 162.1820000 131.7750000  90.2720000 168.4498435 134.2782258  91.2108018
 166.9206208 134.2873423  91.2108476 166.3559748 132.8653454  91.2099514
 164.8277844 132.8719019  91.2093803 164.2562430 131.4720000  91.2090000
 162.9020000 131.4720000  91.2090000 164.9064269 130.4397992  91.2084242
 161.9950000 132.3760000  88.4140000 161.6239627 132.3756082  89.5474083
 161.6209482 131.7596945  91.2114991 168.8190424 133.7438952  92.0942020
 168.8197372 133.7429623  90.3292715 166.5572267 134.8269011  90.3284328
 166.5561634 134.8269044  92.0933625 166.7221151 132.3214740  92.0889224
 166.7220361 132.3229952  90.3287225 164.4605586 133.3903983  90.3171832
 164.4607875 133.3898719  92.1026810 162.5097631 132.3653881  91.2090000
 171.1280000 122.6100000 104.5160000 172.5777774 129.7112005 105.9421438
 171.0686515 129.6257848 105.8552115 170.5089757 128.7226163 106.9462000
 169.0102477 128.6670210 106.7793451 168.3911405 127.8002373 107.8523042
 166.8848159 127.9321808 107.7777451 166.2670844 127.1310000 106.6290000
 164.7210000 127.1310000 106.6290000 164.1136962 128.5577263 106.6290000
 164.6115752 129.4842788 105.5164628 164.0568467 130.8977891 105.7390727
 164.5643630 131.8612987 104.6710697 164.0124345 133.2724171 104.8918251
 164.5209850 134.2126350 103.7966482 163.9742930 135.6277717 103.9737523
 164.4868685 136.5451607 102.8758112 164.1975855 126.4811111 107.9760708
 164.5164433 127.2990878 109.2204143 163.9743105 126.6594234 110.4948002
 164.4023195 127.5233543 111.6749314 163.8860424 127.0020436 113.0095243
 164.3739724 127.9158103 114.1332741 163.8845094 127.4370682 115.4904483
 164.3723657 128.3480515 116.6043876 164.1661881 126.2603906 105.4626574
 164.5197005 124.7745280 105.3524780 164.1259989 123.8398091 106.5009994
 162.6179551 123.8551187 106.7559279 161.9434240 123.2052166 105.5654070
 160.4350011 123.2759084 105.5740254 159.9548935 122.5803068 104.3025470
 158.4468128 122.5770083 104.2104067 170.6660000 122.8780000 103.5610000
 170.5890455 122.5073397 103.5686543 170.5065611 122.1754972 105.3085043
 172.8729754 130.1126320 106.9178291 173.0131727 128.7092427 105.8524485
 170.7659720 129.2386836 104.8750912 170.6268237 130.6254455 105.9548742
 170.7722239 129.1158512 107.9332884 170.9374698 127.7137144 106.8669043
 168.7533187 128.2817845 105.7925598 168.5968951 129.6850287 106.8503450
 168.7252658 128.1382563 108.8385970 168.7053866 126.7547500 107.7485358
 166.5957068 128.9879578 107.7325596 166.5726052 127.5903389 108.7448530
 166.5873425 126.0879625 106.6783618 166.5813881 127.5334737 105.6612644
 164.3602357 129.0266140 107.5714736 163.0253203 128.4436983 106.5752458
 164.2910002 129.1317926 104.5304638 165.7047742 129.5405952 105.5079588
 164.3609731 131.2575757 106.7301851 162.9605120 130.8682478 105.7266421
 164.2699548 131.4997877 103.6812164 165.6605354 131.8917619 104.6955471
 164.3180479 133.6411915 105.8655017 162.9157292 133.2477877 104.8762742
 164.2245892 133.8258654 102.8153420 165.6170986 134.2372493 103.8183350
 164.2747766 136.0267647 104.9497785 162.8790217 135.6113078 103.9503739
 165.5799208 136.6084951 102.8963196 164.0840697 137.5538999 103.0043585
 164.1838333 136.1808719 101.8883785 164.6520542 125.4899619 108.0571353
 163.1096585 126.3705741 107.8667896 164.0626181 128.2910562 109.1641875
 165.5978946 127.4297973 109.3162741 164.3597371 125.6370534 110.6080741
 162.8794861 126.5950040 110.4475076 164.0395385 128.5483520 111.5254737
 165.4985863 127.5744758 111.7051921 164.2476746 125.9778178 113.1758960
 162.7929449 126.9701222 112.9998867 164.0191845 128.9392743 113.9546315
 165.4694190 127.9518191 114.1301142 164.2387463 126.4161405 115.6781609
 162.7870939 127.4053802 115.5046289 165.4673060 128.3806533 116.6311465
 164.0189238 127.9872630 117.5752081 164.0027895 129.3694462 116.4645654
 164.5790187 126.6912503 104.5463470 163.0809227 126.4122412 105.4459758
 165.5577693 124.6279571 105.0502213 164.0320396 124.4219919 104.4378611
 164.6910450 124.0327473 107.4158266 164.4287210 122.8171249 106.2324306
 162.2435027 124.8784618 106.9009114 162.3868803 123.3096479 107.6774419
 162.2733367 122.1601193 105.5097990 162.2629557 123.6837440 104.6377341
 160.1102828 124.3260481 105.5763643 160.0314417 122.7969961 106.4687257
 160.3261578 121.5486438 104.2853392 160.3717045 123.0811868 103.4197974
 158.0128941 122.0791213 105.0815216 158.1321443 122.0450585 103.3095859
 158.0651053 123.6013538 104.1623582 172.5970000 119.8110000  98.9500000
 162.1820000 131.7750000 108.2470000 168.4498435 134.2782258 109.1858018
 166.9206208 134.2873423 109.1858476 166.3559748 132.8653454 109.1849514
 164.8277844 132.8719019 109.1843803 164.2562430 131.4720000 109.1840000
 162.9020000 131.4720000 109.1840000 164.9064269 130.4397992 109.1834242
 161.9950000 132.3760000 106.3890000 161.6239627 132.3756082 107.5224083
 161.6209482 131.7596945 109.1864991 168.8190424 133.7438952 110.0692020
 168.8197372 133.7429623 108.3042715 166.5572267 134.8269011 108.3034328
 166.5561634 134.8269044 110.0683625 166.7221151 132.3214740 110.0639224
 166.7220361 132.3229952 108.3037225 164.4605586 133.3903983 108.2921832
 164.4607875 133.3898719 110.0776810 162.5097631 132.3653881 109.1840000
 171.1280000 122.6100000 122.4900000 172.5777774 129.7112005 123.9161438
 171.0686515 129.6257848 123.8292115 170.5089757 128.7226163 124.9202000
 169.0102477 128.6670210 124.7533451 168.3911405 127.8002373 125.8263042
 166.8848159 127.9321808 125.7517451 166.2670844 127.1310000 124.6030000
 164.7210000 127.1310000 124.6030000 164.1136962 128.5577263 124.6030000
 164.6115752 129.4842788 123.4904628 164.0568467 130.8977891 123.7130727
 164.5643630 131.8612987 122.6450697 164.0124345 133.2724171 122.8658251
 164.5209850 134.2126350 121.7706482 163.9742930 135.6277717 121.9477523
 164.4868685 136.5451607 120.8498112 164.1975855 126.4811111 125.9500708
 164.5164433 127.2990878 127.1944143 163.9743105 126.6594234 128.4688002
 164.4023195 127.5233543 129.6489314 163.8860424 127.0020436 130.9835243
 164.3739724 127.9158103 132.1072741 163.8845094 127.4370682 133.4644483
 164.3723657 128.3480515 134.5783876 164.1661881 126.2603906 123.4366574
 164.5197005 124.7745280 123.3264780 164.1259989 123.8398091 124.4749994
 162.6179551 123.8551187 124.7299279 161.9434240 123.2052166 123.5394070
 160.4350011 123.2759084 123.5480254 159.9548935 122.5803068 122.2765470
 158.4468128 122.5770083 122.1844067 170.6660000 122.8780000 121.5350000
 170.5890455 122.5073397 121.5426543 170.5065611 122.1754972 123.2825043
 172.8729754 130.1126320 124.8918291 173.0131727 128.7092427 123.8264485
 170.7659720 129.2386836 122.8490912 170.6268237 130.6254455 123.9288742
 170.7722239 129.1158512 125.9072884 170.9374698 127.7137144 124.8409043
 168.7533187 128.2817845 123.7665598 168.5968951 129.6850287 124.8243450
 168.7252658 128.1382563 126.8125970 168.7053866 126.7547500 125.7225358
 166.5957068 128.9879578 125.7065596 166.5726052 127.5903389 126.7188530
 166.5873425 126.0879625 124.6523618 166.5813881 127.5334737 123.6352644
 164.3602357 129.0266140 125.5454736 163.0253203 128.4436983 124.5492458
 164.2910002 129.1317926 122.5044638 165.7047742 129.5405952 123.4819588
 164.3609731 131.2575757 124.7041851 162.9605120 130.8682478 123.7006421
 164.2699548 131.4997877 121.6552164 165.6605354 131.8917619 122.6695471
 164.3180479 133.6411915 123.8395017 162.9157292 133.2477877 122.8502742
 164.2245892 133.8258654 120.7893420 165.6170986 134.2372493 121.7923350
 164.2747766 136.0267647 122.9237785 162.8790217 135.6113078 121.9243739
 165.5799208 136.6084951 120.8703196 164.0840697 137.5538999 120.9783585
 164.1838333 136.1808719 119.8623785 164.6520542 125.4899619 126.0311353
 163.1096585 126.3705741 125.8407896 164.0626181 128.2910562 127.1381875
 165.5978946 127.4297973 127.2902741 164.3597371 125.6370534 128.5820741
 162.8794861 126.5950040 128.4215076 164.0395385 128.5483520 129.4994737
 165.4985863 127.5744758 129.6791921 164.2476746 125.9778178 131.1498960
 162.7929449 126.9701222 130.9738867 164.0191845 128.9392743 131.9286315
 165.4694190 127.9518191 132.1041142 164.2387463 126.4161405 133.6521609
 162.7870939 127.4053802 133.4786289 165.4673060 128.3806533 134.6051465
 164.0189238 127.9872630 135.5492081 164.0027895 129.3694462 134.4385654
 164.5790187 126.6912503 122.5203470 163.0809227 126.4122412 123.4199758
 165.5577693 124.6279571 123.0242213 164.0320396 124.4219919 122.4118611
 164.6910450 124.0327473 125.3898266 164.4287210 122.8171249 124.2064306
 162.2435027 124.8784618 124.8749114 162.3868803 123.3096479 125.6514419
 162.2733367 122.1601193 123.4837990 162.2629557 123.6837440 122.6117341
 160.1102828 124.3260481 123.5503643 160.0314417 122.7969961 124.4427257
 160.3261578 121.5486438 122.2593392 160.3717045 123.0811868 121.3937974
 158.0128941 122.0791213 123.0555216 158.1321443 122.0450585 121.2835859
 158.0651053 123.6013538 122.1363582 172.5970000 119.8110000 116.9240000
 162.1820000 131.7750000 126.2210000 168.4498435 134.2782258 127.1598018
 166.9206208 134.2873423 127.1598476 166.3559748 132.8653454 127.1589514
 164.8277844 132.8719019 127.1583803 164.2562430 131.4720000 127.1580000
 162.9020000 131.4720000 127.1580000 164.9064269 130.4397992 127.1574242
 161.9950000 132.3760000 124.3630000 161.6239627 132.3756082 125.4964083
 161.6209482 131.7596945 127.1604991 168.8190424 133.7438952 128.0432020
 168.8197372 133.7429623 126.2782715 166.5572267 134.8269011 126.2774328
 166.5561634 134.8269044 128.0423625 166.7221151 132.3214740 128.0379224
 166.7220361 132.3229952 126.2777225 164.4605586 133.3903983 126.2661832
 164.4607875 133.3898719 128.0516810 162.5097631 132.3653881 127.1580000
 171.1280000 122.6100000 140.4650000 172.5777774 129.7112005 141.8911438
 171.0686515 129.6257848 141.8042115 170.5089757 128.7226163 142.8952000
 169.0102477 128.6670210 142.7283451 168.3911405 127.8002373 143.8013042
 166.8848159 127.9321808 143.7267451 166.2670844 127.1310000 142.5780000
 164.7210000 127.1310000 142.5780000 164.1136962 128.5577263 142.5780000
 164.6115752 129.4842788 141.4654628 164.0568467 130.8977891 141.6880727
 164.5643630 131.8612987 140.6200697 164.0124345 133.2724171 140.8408251
 164.5209850 134.2126350 139.7456482 163.9742930 135.6277717 139.9227523
 164.4868685 136.5451607 138.8248112 164.1975855 126.4811111 143.9250708
 164.5164433 127.2990878 145.1694143 163.9743105 126.6594234 146.4438002
 164.4023195 127.5233543 147.6239314 163.8860424 127.0020436 148.9585243
 164.3739724 127.9158103 150.0822741 163.8845094 127.4370682 151.4394483
 164.3723657 128.3480515 152.5533876 164.1661881 126.2603906 141.4116574
 164.5197005 124.7745280 141.3014780 164.1259989 123.8398091 142.4499994
 162.6179551 123.8551187 142.7049279 161.9434240 123.2052166 141.5144070
 160.4350011 123.2759084 141.5230254 159.9548935 122.5803068 140.2515470
 158.4468128 122.5770083 140.1594067 170.6660000 122.8780000 139.5100000
 170.5890455 122.5073397 139.5176543 170.5065611 122.1754972 141.2575043
 172.8729754 130.1126320 142.8668291 173.0131727 128.7092427 141.8014485
 170.7659720 129.2386836 140.8240912 170.6268237 130.6254455 141.9038742
 170.7722239 129.1158512 143.8822884 170.9374698 127.7137144 142.8159043
 168.7533187 128.2817845 141.7415598 168.5968951 129.6850287 142.7993450
 168.7252658 128.1382563 144.7875970 168.7053866 126.7547500 143.6975358
 166.5957068 128.9879578 143.6815596 166.5726052 127.5903389 144.6938530
 166.5873425 126.0879625 142.6273618 166.5813881 127.5334737 141.6102644
 164.3602357 129.0266140 143.5204736 163.0253203 128.4436983 142.5242458
 164.2910002 129.1317926 140.4794638 165.7047742 129.5405952 141.4569588
 164.3609731 131.2575757 142.6791851 162.9605120 130.8682478 141.6756421
 164.2699548 131.4997877 139.6302164 165.6605354 131.8917619 140.6445471
 164.3180479 133.6411915 141.8145017 162.9157292 133.2477877 140.8252742
 164.2245892 133.8258654 138.7643420 165.6170986 134.2372493 139.7673350
 164.2747766 136.0267647 140.8987785 162.8790217 135.6113078 139.8993739
 165.5799208 136.6084951 138.8453196 164.0840697 137.5538999 138.9533585
 164.1838333 136.1808719 137.8373785 164.6520542 125.4899619 144.0061353
 163.1096585 126.3705741 143.8157896 164.0626181 128.2910562 145.1131875
 165.5978946 127.4297973 145.2652741 164.3597371 125.6370534 146.5570741
 162.8794861 126.5950040 146.3965076 164.0395385 128.5483520 147.4744737
 165.4985863 127.5744758 147.6541921 164.2476746 125.9778178 149.1248960
 162.7929449 126.9701222 148.9488867 164.0191845 128.9392743 149.9036315
 165.4694190 127.9518191 150.0791142 164.2387463 126.4161405 151.6271609
 162.7870939 127.4053802 151.4536289 165.4673060 128.3806533 152.5801465
 164.0189238 127.9872630 153.5242081 164.0027895 129.3694462 152.4135654
 164.5790187 126.6912503 140.4953470 163.0809227 126.4122412 141.3949758
 165.5577693 124.6279571 140.9992213 164.0320396 124.4219919 140.3868611
 164.6910450 124.0327473 143.3648266 164.4287210 122.8171249 142.1814306
 162.2435027 124.8784618 142.8499114 162.3868803 123.3096479 143.6264419
 162.2733367 122.1601193 141.4587990 162.2629557 123.6837440 140.5867341
 160.1102828 124.3260481 141.5253643 160.0314417 122.7969961 142.4177257
 160.3261578 121.5486438 140.2343392 160.3717045 123.0811868 139.3687974
 158.0128941 122.0791213 141.0305216 158.1321443 122.0450585 139.2585859
 158.0651053 123.6013538 140.1113582 172.5970000 119.8110000 134.8990000
 162.1820000 131.7750000 144.1960000 168.4498435 134.2782258 145.1348018
 166.9206208 134.2873423 145.1348476 166.3559748 132.8653454 145.1339514
 164.8277844 132.8719019 145.1333803 164.2562430 131.4720000 145.1330000
 162.9020000 131.4720000 145.1330000 164.9064269 130.4397992 145.1324242
 161.9950000 132.3760000 142.3380000 161.6239627 132.3756082 143.4714083
 161.6209482 131.7596945 145.1354991 168.8190424 133.7438952 146.0182020
 168.8197372 133.7429623 144.2532715 166.5572267 134.8269011 144.2524328
 166.5561634 134.8269044 146.0173625 166.7221151 132.3214740 146.0129224
 166.7220361 132.3229952 144.2527225 164.4605586 133.3903983 144.2411832
 164.4607875 133.3898719 146.0266810 162.5097631 132.3653881 145.1330000
 171.1280000 122.6100000 158.4400000 172.5777774 129.7112005 159.8661438
 171.0686515 129.6257848 159.7792115 170.5089757 128.7226163 160.8702000
 169.0102477 128.6670210 160.7033451 168.3911405 127.8002373 161.7763042
 166.8848159 127.9321808 161.7017451 166.2670844 127.1310000 160.5530000
 164.7210000 127.1310000 160.5530000 164.1136962 128.5577263 160.5530000
 164.6115752 129.4842788 159.4404628 164.0568467 130.8977891 159.6630727
 164.5643630 131.8612987 158.5950697 164.0124345 133.2724171 158.8158251
 164.5209850 134.2126350 157.7206482 163.9742930 135.6277717 157.8977523
 164.4868685 136.5451607 156.7998112 164.1975855 126.4811111 161.9000708
 164.5164433 127.2990878 163.1444143 163.9743105 126.6594234 164.4188002
 164.4023195 127.5233543 165.5989314 163.8860424 127.0020436 166.9335243
 164.3739724 127.9158103 168.0572741 163.8845094 127.4370682 169.4144483
 164.3723657 128.3480515 170.5283876 164.1661881 126.2603906 159.3866574
 164.5197005 124.7745280 159.2764780 164.1259989 123.8398091 160.4249994
 162.6179551 123.8551187 160.6799279 161.9434240 123.2052166 159.4894070
 160.4350011 123.2759084 159.4980254 159.9548935 122.5803068 158.2265470
 158.4468128 122.5770083 158.1344067 170.6660000 122.8780000 157.4850000
 170.5890455 122.5073397 157.4926543 170.5065611 122.1754972 159.2325043
 172.8729754 130.1126320 160.8418291 173.0131727 128.7092427 159.7764485
 170.7659720 129.2386836 158.7990912 170.6268237 130.6254455 159.8788742
 170.7722239 129.1158512 161.8572884 170.9374698 127.7137144 160.7909043
 168.7533187 128.2817845 159.7165598 168.5968951 129.6850287 160.7743450
 168.7252658 128.1382563 162.7625970 168.7053866 126.7547500 161.6725358
 166.5957068 128.9879578 161.6565596 166.5726052 127.5903389 162.6688530
 166.5873425 126.0879625 160.6023618 166.5813881 127.5334737 159.5852644
 164.3602357 129.0266140 161.4954736 163.0253203 128.4436983 160.4992458
 164.2910002 129.1317926 158.4544638 165.7047742 129.5405952 159.4319588
 164.3609731 131.2575757 160.6541851 162.9605120 130.8682478 159.6506421
 164.2699548 131.4997877 157.6052164 165.6605354 131.8917619 158.6195471
 164.3180479 133.6411915 159.7895017 162.9157292 133.2477877 158.8002742
 164.2245892 133.8258654 156.7393420 165.6170986 134.2372493 157.7423350
 164.2747766 136.0267647 158.8737785 162.8790217 135.6113078 157.8743739
 165.5799208 136.6084951 156.8203196 164.0840697 137.5538999 156.9283585
 164.1838333 136.1808719 155.8123785 164.6520542 125.4899619 161.9811353
 163.1096585 126.3705741 161.7907896 164.0626181 128.2910562 163.0881875
 165.5978946 127.4297973 163.2402741 164.3597371 125.6370534 164.5320741
 162.8794861 126.5950040 164.3715076 164.0395385 128.5483520 165.4494737
 165.4985863 127.5744758 165.6291921 164.2476746 125.9778178 167.0998960
 162.7929449 126.9701222 166.9238867 164.0191845 128.9392743 167.8786315
 165.4694190 127.9518191 168.0541142 164.2387463 126.4161405 169.6021609
 162.7870939 127.4053802 169.4286289 165.4673060 128.3806533 170.5551465
 164.0189238 127.9872630 171.4992081 164.0027895 129.3694462 170.3885654
 164.5790187 126.6912503 158.4703470 163.0809227 126.4122412 159.3699758
 165.5577693 124.6279571 158.9742213 164.0320396 124.4219919 158.3618611
 164.6910450 124.0327473 161.3398266 164.4287210 122.8171249 160.1564306
 162.2435027 124.8784618 160.8249114 162.3868803 123.3096479 161.6014419
 162.2733367 122.1601193 159.4337990 162.2629557 123.6837440 158.5617341
 160.1102828 124.3260481 159.5003643 160.0314417 122.7969961 160.3927257
 160.3261578 121.5486438 158.2093392 160.3717045 123.0811868 157.3437974
 158.0128941 122.0791213 159.0055216 158.1321443 122.0450585 157.2335859
 158.0651053 123.6013538 158.0863582 172.5970000 119.8110000 152.8740000
 162.1820000 131.7750000 162.1710000 168.4498435 134.2782258 163.1098018
 166.9206208 134.2873423 163.1098476 166.3559748 132.8653454 163.1089514
 164.8277844 132.8719019 163.1083803 164.2562430 131.4720000 163.1080000
 162.9020000 131.4720000 163.1080000 164.9064269 130.4397992 163.1074242
 161.9950000 132.3760000 160.3130000 161.6239627 132.3756082 161.4464083
 161.6209482 131.7596945 163.1104991 168.8190424 133.7438952 163.9932020
 168.8197372 133.7429623 162.2282715 166.5572267 134.8269011 162.2274328
 166.5561634 134.8269044 163.9923625 166.7221151 132.3214740 163.9879224
 166.7220361 132.3229952 162.2277225 164.4605586 133.3903983 162.2161832
 164.4607875 133.3898719 164.0016810 162.5097631 132.3653881 163.1080000
 171.1280000 122.6100000 176.4150000 172.5777774 129.7112005 177.8411438
 171.0686515 129.6257848 177.7542115 170.5089757 128.7226163 178.8452000
 169.0102477 128.6670210 178.6783451 168.3911405 127.8002373 179.7513042
 166.8848159 127.9321808 179.6767451 166.2670844 127.1310000 178.5280000
 164.7210000 127.1310000 178.5280000 164.1136962 128.5577263 178.5280000
 164.6115752 129.4842788 177.4154628 164.0568467 130.8977891 177.6380727
 164.5643630 131.8612987 176.5700697 164.0124345 133.2724171 176.7908251
 164.5209850 134.2126350 175.6956482 163.9742930 135.6277717 175.8727523
 164.4868685 136.5451607 174.7748112 164.1975855 126.4811111 179.8750708
 164.5164433 127.2990878 181.1194143 163.9743105 126.6594234 182.3938002
 164.4023195 127.5233543 183.5739314 163.8860424 127.0020436 184.9085243
 164.3739724 127.9158103 186.0322741 163.8845094 127.4370682 187.3894483
 164.3723657 128.3480515 188.5033876 164.1661881 126.2603906 177.3616574
 164.5197005 124.7745280 177.2514780 164.1259989 123.8398091 178.3999994
 162.6179551 123.8551187 178.6549279 161.9434240 123.2052166 177.4644070
 160.4350011 123.2759084 177.4730254 159.9548935 122.5803068 176.2015470
 158.4468128 122.5770083 176.1094067 170.6660000 122.8780000 175.4600000
 170.5890455 122.5073397 175.4676543 170.5065611 122.1754972 177.2075043
 172.8729754 130.1126320 178.8168291 173.0131727 128.7092427 177.7514485
 170.7659720 129.2386836 176.7740912 170.6268237 130.6254455 177.8538742
 170.7722239 129.1158512 179.8322884 170.9374698 127.7137144 178.7659043
 168.7533187 128.2817845 177.6915598 168.5968951 129.6850287 178.7493450
 168.7252658 128.1382563 180.7375970 168.7053866 126.7547500 179.6475358
 166.5957068 128.9879578 179.6315596 166.5726052 127.5903389 180.6438530
 166.5873425 126.0879625 178.5773618 166.5813881 127.5334737 177.5602644
 164.3602357 129.0266140 179.4704736 163.0253203 128.4436983 178.4742458
 164.2910002 129.1317926 176.4294638 165.7047742 129.5405952 177.4069588
 164.3609731 131.2575757 178.6291851 162.9605120 130.8682478 177.6256421
 164.2699548 131.4997877 175.5802164 165.6605354 131.8917619 176.5945471
 164.3180479 133.6411915 177.7645017 162.9157292 133.2477877 176.7752742
 164.2245892 133.8258654 174.7143420 165.6170986 134.2372493 175.7173350
 164.2747766 136.0267647 176.8487785 162.8790217 135.6113078 175.8493739
 165.5799208 136.6084951 174.7953196 164.0840697 137.5538999 174.9033585
 164.1838333 136.1808719 173.7873785 164.6520542 125.4899619 179.9561353
 163.1096585 126.3705741 179.7657896 164.0626181 128.2910562 181.0631875
 165.5978946 127.4297973 181.2152741 164.3597371 125.6370534 182.5070741
 162.8794861 126.5950040 182.3465076 164.0395385 128.5483520 183.4244737
 165.4985863 127.5744758 183.6041921 164.2476746 125.9778178 185.0748960
 162.7929449 126.9701222 184.8988867 164.0191845 128.9392743 185.8536315
 165.4694190 127.9518191 186.0291142 164.2387463 126.4161405 187.5771609
 162.7870939 127.4053802 187.4036289 165.4673060 128.3806533 188.5301465
 164.0189238 127.9872630 189.4742081 164.0027895 129.3694462 188.3635654
 164.5790187 126.6912503 176.4453470 163.0809227 126.4122412 177.3449758
 165.5577693 124.6279571 176.9492213 164.0320396 124.4219919 176.3368611
 164.6910450 124.0327473 179.3148266 164.4287210 122.8171249 178.1314306
 162.2435027 124.8784618 178.7999114 162.3868803 123.3096479 179.5764419
 162.2733367 122.1601193 177.4087990 162.2629557 123.6837440 176.5367341
 160.1102828 124.3260481 177.4753643 160.0314417 122.7969961 178.3677257
 160.3261578 121.5486438 176.1843392 160.3717045 123.0811868 175.3187974
 158.0128941 122.0791213 176.9805216 158.1321443 122.0450585 175.2085859
 158.0651053 123.6013538 176.0613582 172.5970000 119.8110000 170.8490000
 162.1820000 131.7750000 180.1460000 168.4498435 134.2782258 181.0848018
 166.9206208 134.2873423 181.0848476 166.3559748 132.8653454 181.0839514
 164.8277844 132.8719019 181.0833803 164.2562430 131.4720000 181.0830000
 162.9020000 131.4720000 181.0830000 164.9064269 130.4397992 181.0824242
 161.9950000 132.3760000 178.2880000 161.6239627 132.3756082 179.4214083
 161.6209482 131.7596945 181.0854991 168.8190424 133.7438952 181.9682020
 168.8197372 133.7429623 180.2032715 166.5572267 134.8269011 180.2024328
 166.5561634 134.8269044 181.9673625 166.7221151 132.3214740 181.9629224
 166.7220361 132.3229952 180.2027225 164.4605586 133.3903983 180.1911832
 164.4607875 133.3898719 181.9766810 162.5097631 132.3653881 181.0830000
 171.1280000 141.2130000  68.5660000 172.5777774 148.3142005  69.9921438
 171.0686515 148.2287848  69.9052115 170.5089757 147.3256163  70.9962000
 169.0102477 147.2700210  70.8293451 168.3911405 146.4032373  71.9023042
 166.8848159 146.5351808  71.8277451 166.2670844 145.7340000  70.6790000
 164.7210000 145.7340000  70.6790000 164.1136962 147.1607263  70.6790000
 164.6115752 148.0872788  69.5664628 164.0568467 149.5007891  69.7890727
 164.5643630 150.4642987  68.7210697 164.0124345 151.8754171  68.9418251
 164.5209850 152.8156350  67.8466482 163.9742930 154.2307717  68.0237523
 164.4868685 155.1481607  66.9258112 164.1975855 145.0841111  72.0260708
 164.5164433 145.9020878  73.2704143 163.9743105 145.2624234  74.5448002
 164.4023195 146.1263543  75.7249314 163.8860424 145.6050436  77.0595243
 164.3739724 146.5188103  78.1832741 163.8845094 146.0400682  79.5404483
 164.3723657 146.9510515  80.6543876 164.1661881 144.8633906  69.5126574
 164.5197005 143.3775280  69.4024780 164.1259989 142.4428091  70.5509994
 162.6179551 142.4581187  70.8059279 161.9434240 141.8082166  69.6154070
 160.4350011 141.8789084  69.6240254 159.9548935 141.1833068  68.3525470
 158.4468128 141.1800083  68.2604067 170.6660000 141.4810000  67.6110000
 170.5890455 141.1103397  67.6186543 170.5065611 140.7784972  69.3585043
 172.8729754 148.7156320  70.9678291 173.0131727 147.3122427  69.9024485
 170.7659720 147.8416836  68.9250912 170.6268237 149.2284455  70.0048742
 170.7722239 147.7188512  71.9832884 170.9374698 146.3167144  70.9169043
 168.7533187 146.8847845  69.8425598 168.5968951 148.2880287  70.9003450
 168.7252658 146.7412563  72.8885970 168.7053866 145.3577500  71.7985358
 166.5957068 147.5909578  71.7825596 166.5726052 146.1933389  72.7948530
 166.5873425 144.6909625  70.7283618 166.5813881 146.1364737  69.7112644
 164.3602357 147.6296140  71.6214736 163.0253203 147.0466983  70.6252458
 164.2910002 147.7347926  68.5804638 165.7047742 148.1435952  69.5579588
 164.3609731 149.8605757  70.7801851 162.9605120 149.4712478  69.7766421
 164.2699548 150.1027877  67.7312164 165.6605354 150.4947619  68.7455471
 164.3180479 152.2441915  69.9155017 162.9157292 151.8507877  68.9262742
 164.2245892 152.4288654  66.8653420 165.6170986 152.8402493  67.8683350
 164.2747766 154.6297647  68.9997785 162.8790217 154.2143078  68.0003739
 165.5799208 155.2114951  66.9463196 164.0840697 156.1568999  67.0543585
 164.1838333 154.7838719  65.9383785 164.6520542 144.0929619  72.1071353
 163.1096585 144.9735741  71.9167896 164.0626181 146.8940562  73.2141875
 165.5978946 146.0327973  73.3662741 164.3597371 144.2400534  74.6580741
 162.8794861 145.1980040  74.4975076 164.0395385 147.1513520  75.5754737
 165.4985863 146.1774758  75.7551921 164.2476746 144.5808178  77.2258960
 162.7929449 145.5731222  77.0498867 164.0191845 147.5422743  78.0046315
 165.4694190 146.5548191  78.1801142 164.2387463 145.0191405  79.7281609
 162.7870939 146.0083802  79.5546289 165.4673060 146.9836533  80.6811465
 164.0189238 146.5902630  81.6252081 164.0027895 147.9724462  80.5145654
 164.5790187 145.2942503  68.5963470 163.0809227 145.0152412  69.4959758
 165.5577693 143.2309571  69.1002213 164.0320396 143.0249919  68.4878611
 164.6910450 142.6357473  71.4658266 164.4287210 141.4201249  70.2824306
 162.2435027 143.4814618  70.9509114 162.3868803 141.9126479  71.7274419
 162.2733367 140.7631193  69.5597990 162.2629557 142.2867440  68.6877341
 160.1102828 142.9290481  69.6263643 160.0314417 141.3999961  70.5187257
 160.3261578 140.1516438  68.3353392 160.3717045 141.6841868  67.4697974
 158.0128941 140.6821213  69.1315216 158.1321443 140.6480585  67.3595859
 158.0651053 142.2043538  68.2123582 172.5970000 138.4140000  63.0000000
 162.1820000 150.3780000  72.2970000 168.4498435 152.8812258  73.2358018
 166.9206208 152.8903423  73.2358476 166.3559748 151.4683454  73.2349514
 164.8277844 151.4749019  73.2343803 164.2562430 150.0750000  73.2340000
 162.9020000 150.0750000  73.2340000 164.9064269 149.0427992  73.2334242
 161.9950000 150.9790000  70.4390000 161.6239627 150.9786082  71.5724083
 161.6209482 150.3626945  73.2364991 168.8190424 152.3468952  74.1192020
 168.8197372 152.3459623  72.3542715 166.5572267 153.4299011  72.3534328
 166.5561634 153.4299044  74.1183625 166.7221151 150.9244740  74.1139224
 166.7220361 150.9259952  72.3537225 164.4605586 151.9933983  72.3421832
 164.4607875 151.9928719  74.1276810 162.5097631 150.9683881  73.2340000
 171.1280000 141.2130000  86.5410000 172.5777774 148.3142005  87.9671438
 171.0686515 148.2287848  87.8802115 170.5089757 147.3256163  88.9712000
 169.0102477 147.2700210  88.8043451 168.3911405 146.4032373  89.8773042
 166.8848159 146.5351808  89.8027451 166.2670844 145.7340000  88.6540000
 164.7210000 145.7340000  88.6540000 164.1136962 147.1607263  88.6540000
 164.6115752 148.0872788  87.5414628 164.0568467 149.5007891  87.7640727
 164.5643630 150.4642987  86.6960697 164.0124345 151.8754171  86.9168251
 164.5209850 152.8156350  85.8216482 163.9742930 154.2307717  85.9987523
 164.4868685 155.1481607  84.9008112 164.1975855 145.0841111  90.0010708
 164.5164433 145.9020878  91.2454143 163.9743105 145.2624234  92.5198002
 164.4023195 146.1263543  93.6999314 163.8860424 145.6050436  95.0345243
 164.3739724 146.5188103  96.1582741 163.8845094 146.0400682  97.5154483
 164.3723657 146.9510515  98.6293876 164.1661881 144.8633906  87.4876574
 164.5197005 143.3775280  87.3774780 164.1259989 142.4428091  88.5259994
 162.6179551 142.4581187  88.7809279 161.9434240 141.8082166  87.5904070
 160.4350011 141.8789084  87.5990254 159.9548935 141.1833068  86.3275470
 158.4468128 141.1800083  86.2354067 170.6660000 141.4810000  85.5860000
 170.5890455 141.1103397  85.5936543 170.5065611 140.7784972  87.3335043
 172.8729754 148.7156320  88.9428291 173.0131727 147.3122427  87.8774485
 170.7659720 147.8416836  86.9000912 170.6268237 149.2284455  87.9798742
 170.7722239 147.7188512  89.9582884 170.9374698 146.3167144  88.8919043
 168.7533187 146.8847845  87.8175598 168.5968951 148.2880287  88.8753450
 168.7252658 146.7412563  90.8635970 168.7053866 145.3577500  89.7735358
 166.5957068 147.5909578  89.7575596 166.5726052 146.1933389  90.7698530
 166.5873425 144.6909625  88.7033618 166.5813881 146.1364737  87.6862644
 164.3602357 147.6296140  89.5964736 163.0253203 147.0466983  88.6002458
 164.2910002 147.7347926  86.5554638 165.7047742 148.1435952  87.5329588
 164.3609731 149.8605757  88.7551851 162.9605120 149.4712478  87.7516421
 164.2699548 150.1027877  85.7062164 165.6605354 150.4947619  86.7205471
 164.3180479 152.2441915  87.8905017 162.9157292 151.8507877  86.9012742
 164.2245892 152.4288654  84.8403420 165.6170986 152.8402493  85.8433350
 164.2747766 154.6297647  86.9747785 162.8790217 154.2143078  85.9753739
 165.5799208 155.2114951  84.9213196 164.0840697 156.1568999  85.0293585
 164.1838333 154.7838719  83.9133785 164.6520542 144.0929619  90.0821353
 163.1096585 144.9735741  89.8917896 164.0626181 146.8940562  91.1891875
 165.5978946 146.0327973  91.3412741 164.3597371 144.2400534  92.6330741
 162.8794861 145.1980040  92.4725076 164.0395385 147.1513520  93.5504737
 165.4985863 146.1774758  93.7301921 164.2476746 144.5808178  95.2008960
 162.7929449 145.5731222  95.0248867 164.0191845 147.5422743  95.9796315
 165.4694190 146.5548191  96.1551142 164.2387463 145.0191405  97.7031609
 162.7870939 146.0083802  97.5296289 165.4673060 146.9836533  98.6561465
 164.0189238 146.5902630  99.6002081 164.0027895 147.9724462  98.4895654
 164.5790187 145.2942503  86.5713470 163.0809227 145.0152412  87.4709758
 165.5577693 143.2309571  87.0752213 164.0320396 143.0249919  86.4628611
 164.6910450 142.6357473  89.4408266 164.4287210 141.4201249  88.2574306
 162.2435027 143.4814618  88.9259114 162.3868803 141.9126479  89.7024419
 162.2733367 140.7631193  87.5347990 162.2629557 142.2867440  86.6627341
 160.1102828 142.9290481  87.6013643 160.0314417 141.3999961  88.4937257
 160.3261578 140.1516438  86.3103392 160.3717045 141.6841868  85.4447974
 158.0128941 140.6821213  87.1065216 158.1321443 140.6480585  85.3345859
 158.0651053 142.2043538  86.1873582 172.5970000 138.4140000  80.9750000
 162.1820000 150.3780000  90.2720000 168.4498435 152.8812258  91.2108018
 166.9206208 152.8903423  91.2108476 166.3559748 151.4683454  91.2099514
 164.8277844 151.4749019  91.2093803 164.2562430 150.0750000  91.2090000
 162.9020000 150.0750000  91.2090000 164.9064269 149.0427992  91.2084242
 161.9950000 150.9790000  88.4140000 161.6239627 150.9786082  89.5474083
 161.6209482 150.3626945  91.2114991 168.8190424 152.3468952  92.0942020
 168.8197372 152.3459623  90.3292715 166.5572267 153.4299011  90.3284328
 166.5561634 153.4299044  92.0933625 166.7221151 150.9244740  92.0889224
 166.7220361 150.9259952  90.3287225 164.4605586 151.9933983  90.3171832
 164.4607875 151.9928719  92.1026810 162.5097631 150.9683881  91.2090000
 171.1280000 141.2130000 104.5160000 172.5777774 148.3142005 105.9421438
 171.0686515 148.2287848 105.8552115 170.5089757 147.3256163 106.9462000
 169.0102477 147.2700210 106.7793451 168.3911405 146.4032373 107.8523042
 166.8848159 146.5351808 107.7777451 166.2670844 145.7340000 106.6290000
 164.7210000 145.7340000 106.6290000 164.1136962 147.1607263 106.6290000
 164.6115752 148.0872788 105.5164628 164.0568467 149.5007891 105.7390727
 164.5643630 150.4642987 104.6710697 164.0124345 151.8754171 104.8918251
 164.5209850 152.8156350 103.7966482 163.9742930 154.2307717 103.9737523
 164.4868685 155.1481607 102.8758112 164.1975855 145.0841111 107.9760708
 164.5164433 145.9020878 109.2204143 163.9743105 145.2624234 110.4948002
 164.4023195 146.1263543 111.6749314 163.8860424 145.6050436 113.0095243
 164.3739724 146.5188103 114.1332741 163.8845094 146.0400682 115.4904483
 164.3723657 146.9510515 116.6043876 164.1661881 144.8633906 105.4626574
 164.5197005 143.3775280 105.3524780 164.1259989 142.4428091 106.5009994
 162.6179551 142.4581187 106.7559279 161.9434240 141.8082166 105.5654070
 160.4350011 141.8789084 105.5740254 159.9548935 141.1833068 104.3025470
 158.4468128 141.1800083 104.2104067 170.6660000 141.4810000 103.5610000
 170.5890455 141.1103397 103.5686543 170.5065611 140.7784972 105.3085043
 172.8729754 148.7156320 106.9178291 173.0131727 147.3122427 105.8524485
 170.7659720 147.8416836 104.8750912 170.6268237 149.2284455 105.9548742
 170.7722239 147.7188512 107.9332884 170.9374698 146.3167144 106.8669043
 168.7533187 146.8847845 105.7925598 168.5968951 148.2880287 106.8503450
 168.7252658 146.7412563 108.8385970 168.7053866 145.3577500 107.7485358
 166.5957068 147.5909578 107.7325596 166.5726052 146.1933389 108.7448530
 166.5873425 144.6909625 106.6783618 166.5813881 146.1364737 105.6612644
 164.3602357 147.6296140 107.5714736 163.0253203 147.0466983 106.5752458
 164.2910002 147.7347926 104.5304638 165.7047742 148.1435952 105.5079588
 164.3609731 149.8605757 106.7301851 162.9605120 149.4712478 105.7266421
 164.2699548 150.1027877 103.6812164 165.6605354 150.4947619 104.6955471
 164.3180479 152.2441915 105.8655017 162.9157292 151.8507877 104.8762742
 164.2245892 152.4288654 102.8153420 165.6170986 152.8402493 103.8183350
 164.2747766 154.6297647 104.9497785 162.8790217 154.2143078 103.9503739
 165.5799208 155.2114951 102.8963196 164.0840697 156.1568999 103.0043585
 164.1838333 154.7838719 101.8883785 164.6520542 144.0929619 108.0571353
 163.1096585 144.9735741 107.8667896 164.0626181 146.8940562 109.1641875
 165.5978946 146.0327973 109.3162741 164.3597371 144.2400534 110.6080741
 162.8794861 145.1980040 110.4475076 164.0395385 147.1513520 111.5254737
 165.4985863 146.1774758 111.7051921 164.2476746 144.5808178 113.1758960
 162.7929449 145.5731222 112.9998867 164.0191845 147.5422743 113.9546315
 165.4694190 146.5548191 114.1301142 164.2387463 145.0191405 115.6781609
 162.7870939 146.0083802 115.5046289 165.4673060 146.9836533 116.6311465
 164.0189238 146.5902630 117.5752081 164.0027895 147.9724462 116.4645654
 164.5790187 145.2942503 104.5463470 163.0809227 145.0152412 105.4459758
 165.5577693 143.2309571 105.0502213 164.0320396 143.0249919 104.4378611
 164.6910450 142.6357473 107.4158266 164.4287210 141.4201249 106.2324306
 162.2435027 143.4814618 106.9009114 162.3868803 141.9126479 107.6774419
 162.2733367 140.7631193 105.5097990 162.2629557 142.2867440 104.6377341
 160.1102828 142.9290481 105.5763643 160.0314417 141.3999961 106.4687257
 160.3261578 140.1516438 104.2853392 160.3717045 141.6841868 103.4197974
 158.0128941 140.6821213 105.0815216 158.1321443 140.6480585 103.3095859
 158.0651053 142.2043538 104.1623582 172.5970000 138.4140000  98.9500000
 162.1820000 150.3780000 108.2470000 168.4498435 152.8812258 109.1858018
 166.9206208 152.8903423 109.1858476 166.3559748 151.4683454 109.1849514
 164.8277844 151.4749019 109.1843803 164.2562430 150.0750000 109.1840000
 162.9020000 150.0750000 109.1840000 164.9064269 149.0427992 109.1834242
 161.9950000 150.9790000 106.3890000 161.6239627 150.9786082 107.5224083
 161.6209482 150.3626945 109.1864991 168.8190424 152.3468952 110.0692020
 168.8197372 152.3459623 108.3042715 166.5572267 153.4299011 108.3034328
 166.5561634 153.4299044 110.0683625 166.7221151 150.9244740 110.0639224
 166.7220361 150.9259952 108.3037225 164.4605586 151.9933983 108.2921832
 164.4607875 151.9928719 110.0776810 162.5097631 150.9683881 109.1840000
 171.1280000 141.2130000 122.4900000 172.5777774 148.3142005 123.9161438
 171.0686515 148.2287848 123.8292115 170.5089757 147.3256163 124.9202000
 169.0102477 147.2700210 124.7533451 168.3911405 146.4032373 125.8263042
 166.8848159 146.5351808 125.7517451 166.2670844 145.7340000 124.6030000
 164.7210000 145.7340000 124.6030000 164.1136962 147.1607263 124.6030000
 164.6115752 148.0872788 123.4904628 164.0568467 149.5007891 123.7130727
 164.5643630 150.4642987 122.6450697 164.0124345 151.8754171 122.8658251
 164.5209850 152.8156350 121.7706482 163.9742930 154.2307717 121.9477523
 164.4868685 155.1481607 120.8498112 164.1975855 145.0841111 125.9500708
 164.5164433 145.9020878 127.1944143 163.9743105 145.2624234 128.4688002
 164.4023195 146.1263543 129.6489314 163.8860424 145.6050436 130.9835243
 164.3739724 146.5188103 132.1072741 163.8845094 146.0400682 133.4644483
 164.3723657 146.9510515 134.5783876 164.1661881 144.8633906 123.4366574
 164.5197005 143.3775280 123.3264780 164.1259989 142.4428091 124.4749994
 162.6179551 142.4581187 124.7299279 161.9434240 141.8082166 123.5394070
 160.4350011 141.8789084 123.5480254 159.9548935 141.1833068 122.2765470
 158.4468128 141.1800083 122.1844067 170.6660000 141.4810000 121.5350000
 170.5890455 141.1103397 121.5426543 170.5065611 140.7784972 123.2825043
 172.8729754 148.7156320 124.8918291 173.0131727 147.3122427 123.8264485
 170.7659720 147.8416836 122.8490912 170.6268237 149.2284455 123.9288742
 170.7722239 147.7188512 125.9072884 170.9374698 146.3167144 124.8409043
 168.7533187 146.8847845 123.7665598 168.5968951 148.2880287 124.8243450
 168.7252658 146.7412563 126.8125970 168.7053866 145.3577500 125.7225358
 166.5957068 147.5909578 125.7065596 166.5726052 146.1933389 126.7188530
 166.5873425 144.6909625 124.6523618 166.5813881 146.1364737 123.6352644
 164.3602357 147.6296140 125.5454736 163.0253203 147.0466983 124.5492458
 164.2910002 147.7347926 122.5044638 165.7047742 148.1435952 123.4819588
 164.3609731 149.8605757 124.7041851 162.9605120 149.4712478 123.7006421
 164.2699548 150.1027877 121.6552164 165.6605354 150.4947619 122.6695471
 164.3180479 152.2441915 123.8395017 162.9157292 151.8507877 122.8502742
 164.2245892 152.4288654 120.7893420 165.6170986 152.8402493 121.7923350
 164.2747766 154.6297647 122.9237785 162.8790217 154.2143078 121.9243739
 165.5799208 155.2114951 120.8703196 164.0840697 156.1568999 120.9783585
 164.1838333 154.7838719 119.8623785 164.6520542 144.0929619 126.0311353
 163.1096585 144.9735741 125.8407896 164.0626181 146.8940562 127.1381875
 165.5978946 146.0327973 127.2902741 164.3597371 144.2400534 128.5820741
 162.8794861 145.1980040 128.4215076 164.0395385 147.1513520 129.4994737
 165.4985863 146.1774758 129.6791921 164.2476746 144.5808178 131.1498960
 162.7929449 145.5731222 130.9738867 164.0191845 147.5422743 131.9286315
 165.4694190 146.5548191 132.1041142 164.2387463 145.0191405 133.6521609
 162.7870939 146.0083802 133.4786289 165.4673060 146.9836533 134.6051465
 164.0189238 146.5902630 135.5492081 164.0027895 147.9724462 134.4385654
 164.5790187 145.2942503 122.5203470 163.0809227 145.0152412 123.4199758
 165.5577693 143.2309571 123.0242213 164.0320396 143.0249919 122.4118611
 164.6910450 142.6357473 125.3898266 164.4287210 141.4201249 124.2064306
 162.2435027 143.4814618 124.8749114 162.3868803 141.9126479 125.6514419
 162.2733367 140.7631193 123.4837990 162.2629557 142.2867440 122.6117341
 160.1102828 142.9290481 123.5503643 160.0314417 141.3999961 124.4427257
 160.3261578 140.1516438 122.2593392 160.3717045 141.6841868 121.3937974
 158.0128941 140.6821213 123.0555216 158.1321443 140.6480585 121.2835859
 158.0651053 142.2043538 122.1363582 172.5970000 138.4140000 116.9240000
 162.1820000 150.3780000 126.2210000 168.4498435 152.8812258 127.1598018
 166.9206208 152.8903423 127.1598476 166.3559748 151.4683454 127.1589514
 164.8277844 151.4749019 127.1583803 164.2562430 150.0750000 127.1580000
 162.9020000 150.0750000 127.1580000 164.9064269 149.0427992 127.1574242
 161.9950000 150.9790000 124.3630000 161.6239627 150.9786082 125.4964083
 161.6209482 150.3626945 127.1604991 168.8190424 152.3468952 128.0432020
 168.8197372 152.3459623 126.2782715 166.5572267 153.4299011 126.2774328
 166.5561634 153.4299044 128.0423625 166.7221151 150.9244740 128.0379224
 166.7220361 150.9259952 126.2777225 164.4605586 151.9933983 126.2661832
 164.4607875 151.9928719 128.0516810 162.5097631 150.9683881 127.1580000
 171.1280000 141.2130000 140.4650000 172.5777774 148.3142005 141.8911438
 171.0686515 148.2287848 141.8042115 170.5089757 147.3256163 142.8952000
 169.0102477 147.2700210 142.7283451 168.3911405 146.4032373 143.8013042
 166.8848159 146.5351808 143.7267451 166.2670844 145.7340000 142.5780000
 164.7210000 145.7340000 142.5780000 164.1136962 147.1607263 142.5780000
 164.6115752 148.0872788 141.4654628 164.0568467 149.5007891 141.6880727
 164.5643630 150.4642987 140.6200697 164.0124345 151.8754171 140.8408251
 164.5209850 152.8156350 139.7456482 163.9742930 154.2307717 139.9227523
 164.4868685 155.1481607 138.8248112 164.1975855 145.0841111 143.9250708
 164.5164433 145.9020878 145.1694143 163.9743105 145.2624234 146.4438002
 164.4023195 146.1263543 147.6239314 163.8860424 145.6050436 148.9585243
 164.3739724 146.5188103 150.0822741 163.8845094 146.0400682 151.4394483
 164.3723657 146.9510515 152.5533876 164.1661881 144.8633906 141.4116574
 164.5197005 143.3775280 141.3014780 164.1259989 142.4428091 142.4499994
 162.6179551 142.4581187 142.7049279 161.9434240 141.8082166 141.5144070
 160.4350011 141.8789084 141.5230254 159.9548935 141.1833068 140.2515470
 158.4468128 141.1800083 140.1594067 170.6660000 141.4810000 139.5100000
 170.5890455 141.1103397 139.5176543 170.5065611 140.7784972 141.2575043
 172.8729754 148.7156320 142.8668291 173.0131727 147.3122427 141.8014485
 170.7659720 147.8416836 140.8240912 170.6268237 149.2284455 141.9038742
 170.7722239 147.7188512 143.8822884 170.9374698 146.3167144 142.8159043
 168.7533187 146.8847845 141.7415598 168.5968951 148.2880287 142.7993450
 168.7252658 146.7412563 144.7875970 168.7053866 145.3577500 143.6975358
 166.5957068 147.5909578 143.6815596 166.5726052 146.1933389 144.6938530
 166.5873425 144.6909625 142.6273618 166.5813881 146.1364737 141.6102644
 164.3602357 147.6296140 143.5204736 163.0253203 147.0466983 142.5242458
 164.2910002 147.7347926 140.4794638 165.7047742 148.1435952 141.4569588
 164.3609731 149.8605757 142.6791851 162.9605120 149.4712478 141.6756421
 164.2699548 150.1027877 139.6302164 165.6605354 150.4947619 140.6445471
 164.3180479 152.2441915 141.8145017 162.9157292 151.8507877 140.8252742
 164.2245892 152.4288654 138.7643420 165.6170986 152.8402493 139.7673350
 164.2747766 154.6297647 140.8987785 162.8790217 154.2143078 139.8993739
 165.5799208 155.2114951 138.8453196 164.0840697 156.1568999 138.9533585
 164.1838333 154.7838719 137.8373785 164.6520542 144.0929619 144.0061353
 163.1096585 144.9735741 143.8157896 164.0626181 146.8940562 145.1131875
 165.5978946 146.0327973 145.2652741 164.3597371 144.2400534 146.5570741
 162.8794861 145.1980040 146.3965076 164.0395385 147.1513520 147.4744737
 165.4985863 146.1774758 147.6541921 164.2476746 144.5808178 149.1248960
 162.7929449 145.5731222 148.9488867 164.0191845 147.5422743 149.9036315
 165.4694190 146.5548191 150.0791142 164.2387463 145.0191405 151.6271609
 162.7870939 146.0083802 151.4536289 165.4673060 146.9836533 152.5801465
 164.0189238 146.5902630 153.5242081 164.0027895 147.9724462 152.4135654
 164.5790187 145.2942503 140.4953470 163.0809227 145.0152412 141.3949758
 165.5577693 143.2309571 140.9992213 164.0320396 143.0249919 140.3868611
 164.6910450 142.6357473 143.3648266 164.4287210 141.4201249 142.1814306
 162.2435027 143.4814618 142.8499114 162.3868803 141.9126479 143.6264419
 162.2733367 140.7631193 141.4587990 162.2629557 142.2867440 140.5867341
 160.1102828 142.9290481 141.5253643 160.0314417 141.3999961 142.4177257
 160.3261578 140.1516438 140.2343392 160.3717045 141.6841868 139.3687974
 158.0128941 140.6821213 141.0305216 158.1321443 140.6480585 139.2585859
 158.0651053 142.2043538 140.1113582 172.5970000 138.4140000 134.8990000
 162.1820000 150.3780000 144.1960000 168.4498435 152.8812258 145.1348018
 166.9206208 152.8903423 145.1348476 166.3559748 151.4683454 145.1339514
 164.8277844 151.4749019 145.1333803 164.2562430 150.0750000 145.1330000
 162.9020000 150.0750000 145.1330000 164.9064269 149.0427992 145.1324242
 161.9950000 150.9790000 142.3380000 161.6239627 150.9786082 143.4714083
 161.6209482 150.3626945 145.1354991 168.8190424 152.3468952 146.0182020
 168.8197372 152.3459623 144.2532715 166.5572267 153.4299011 144.2524328
 166.5561634 153.4299044 146.0173625 166.7221151 150.9244740 146.0129224
 166.7220361 150.9259952 144.2527225 164.4605586 151.9933983 144.2411832
 164.4607875 151.9928719 146.0266810 162.5097631 150.9683881 145.1330000
 171.1280000 141.2130000 158.4400000 172.5777774 148.3142005 159.8661438
 171.0686515 148.2287848 159.7792115 170.5089757 147.3256163 160.8702000
 169.0102477 147.2700210 160.7033451 168.3911405 146.4032373 161.7763042
 166.8848159 146.5351808 161.7017451 166.2670844 145.7340000 160.5530000
 164.7210000 145.7340000 160.5530000 164.1136962 147.1607263 160.5530000
 164.6115752 148.0872788 159.4404628 164.0568467 149.5007891 159.6630727
 164.5643630 150.4642987 158.5950697 164.0124345 151.8754171 158.8158251
 164.5209850 152.8156350 157.7206482 163.9742930 154.2307717 157.8977523
 164.4868685 155.1481607 156.7998112 164.1975855 145.0841111 161.9000708
 164.5164433 145.9020878 163.1444143 163.9743105 145.2624234 164.4188002
 164.4023195 146.1263543 165.5989314 163.8860424 145.6050436 166.9335243
 164.3739724 146.5188103 168.0572741 163.8845094 146.0400682 169.4144483
 164.3723657 146.9510515 170.5283876 164.1661881 144.8633906 159.3866574
 164.5197005 143.3775280 159.2764780 164.1259989 142.4428091 160.4249994
 162.6179551 142.4581187 160.6799279 161.9434240 141.8082166 159.4894070
 160.4350011 141.8789084 159.4980254 159.9548935 141.1833068 158.2265470
 158.4468128 141.1800083 158.1344067 170.6660000 141.4810000 157.4850000
 170.5890455 141.1103397 157.4926543 170.5065611 140.7784972 159.2325043
 172.8729754 148.7156320 160.8418291 173.0131727 147.3122427 159.7764485
 170.7659720 147.8416836 158.7990912 170.6268237 149.2284455 159.8788742
 170.7722239 147.7188512 161.8572884 170.9374698 146.3167144 160.7909043
 168.7533187 146.8847845 159.7165598 168.5968951 148.2880287 160.7743450
 168.7252658 146.7412563 162.7625970 168.7053866 145.3577500 161.6725358
 166.5957068 147.5909578 161.6565596 166.5726052 146.1933389 162.6688530
 166.5873425 144.6909625 160.6023618 166.5813881 146.1364737 159.5852644
 164.3602357 147.6296140 161.4954736 163.0253203 147.0466983 160.4992458
 164.2910002 147.7347926 158.4544638 165.7047742 148.1435952 159.4319588
 164.3609731 149.8605757 160.6541851 162.9605120 149.4712478 159.6506421
 164.2699548 150.1027877 157.6052164 165.6605354 150.4947619 158.6195471
 164.3180479 152.2441915 159.7895017 162.9157292 151.8507877 158.8002742
 164.2245892 152.4288654 156.7393420 165.6170986 152.8402493 157.7423350
 164.2747766 154.6297647 158.8737785 162.8790217 154.2143078 157.8743739
 165.5799208 155.2114951 156.8203196 164.0840697 156.1568999 156.9283585
 164.1838333 154.7838719 155.8123785 164.6520542 144.0929619 161.9811353
 163.1096585 144.9735741 161.7907896 164.0626181 146.8940562 163.0881875
 165.5978946 146.0327973 163.2402741 164.3597371 144.2400534 164.5320741
 162.8794861 145.1980040 164.3715076 164.0395385 147.1513520 165.4494737
 165.4985863 146.1774758 165.6291921 164.2476746 144.5808178 167.0998960
 162.7929449 145.5731222 166.9238867 164.0191845 147.5422743 167.8786315
 165.4694190 146.5548191 168.0541142 164.2387463 145.0191405 169.6021609
 162.7870939 146.0083802 169.4286289 165.4673060 146.9836533 170.5551465
 164.0189238 146.5902630 171.4992081 164.0027895 147.9724462 170.3885654
 164.5790187 145.2942503 158.4703470 163.0809227 145.0152412 159.3699758
 165.5577693 143.2309571 158.9742213 164.0320396 143.0249919 158.3618611
 164.6910450 142.6357473 161.3398266 164.4287210 141.4201249 160.1564306
 162.2435027 143.4814618 160.8249114 162.3868803 141.9126479 161.6014419
 162.2733367 140.7631193 159.4337990 162.2629557 142.2867440 158.5617341
 160.1102828 142.9290481 159.5003643 160.0314417 141.3999961 160.3927257
 160.3261578 140.1516438 158.2093392 160.3717045 141.6841868 157.3437974
 158.0128941 140.6821213 159.0055216 158.1321443 140.6480585 157.2335859
 158.0651053 142.2043538 158.0863582 172.5970000 138.4140000 152.8740000
 162.1820000 150.3780000 162.1710000 168.4498435 152.8812258 163.1098018
 166.9206208 152.8903423 163.1098476 166.3559748 151.4683454 163.1089514
 164.8277844 151.4749019 163.1083803 164.2562430 150.0750000 163.1080000
 162.9020000 150.0750000 163.1080000 164.9064269 149.0427992 163.1074242
 161.9950000 150.9790000 160.3130000 161.6239627 150.9786082 161.4464083
 161.6209482 150.3626945 163.1104991 168.8190424 152.3468952 163.9932020
 168.8197372 152.3459623 162.2282715 166.5572267 153.4299011 162.2274328
 166.5561634 153.4299044 163.9923625 166.7221151 150.9244740 163.9879224
 166.7220361 150.9259952 162.2277225 164.4605586 151.9933983 162.2161832
 164.4607875 151.9928719 164.0016810 162.5097631 150.9683881 163.1080000
 171.1280000 141.2130000 176.4150000 172.5777774 148.3142005 177.8411438
 171.0686515 148.2287848 177.7542115 170.5089757 147.3256163 178.8452000
 169.0102477 147.2700210 178.6783451 168.3911405 146.4032373 179.7513042
 166.8848159 146.5351808 179.6767451 166.2670844 145.7340000 178.5280000
 164.7210000 145.7340000 178.5280000 164.1136962 147.1607263 178.5280000
 164.6115752 148.0872788 177.4154628 164.0568467 149.5007891 177.6380727
 164.5643630 150.4642987 176.5700697 164.0124345 151.8754171 176.7908251
 164.5209850 152.8156350 175.6956482 163.9742930 154.2307717 175.8727523
 164.4868685 155.1481607 174.7748112 164.1975855 145.0841111 179.8750708
 164.5164433 145.9020878 181.1194143 163.9743105 145.2624234 182.3938002
 164.4023195 146.1263543 183.5739314 163.8860424 145.6050436 184.9085243
 164.3739724 146.5188103 186.0322741 163.8845094 146.0400682 187.3894483
 164.3723657 146.9510515 188.5033876 164.1661881 144.8633906 177.3616574
 164.5197005 143.3775280 177.2514780 164.1259989 142.4428091 178.3999994
 162.6179551 142.4581187 178.6549279 161.9434240 141.8082166 177.4644070
 160.4350011 141.8789084 177.4730254 159.9548935 141.1833068 176.2015470
 158.4468128 141.1800083 176.1094067 170.6660000 141.4810000 175.4600000
 170.5890455 141.1103397 175.4676543 170.5065611 140.7784972 177.2075043
 172.8729754 148.7156320 178.8168291 173.0131727 147.3122427 177.7514485
 170.7659720 147.8416836 176.7740912 170.6268237 149.2284455 177.8538742
 170.7722239 147.7188512 179.8322884 170.9374698 146.3167144 178.7659043
 168.7533187 146.8847845 177.6915598 168.5968951 148.2880287 178.7493450
 168.7252658 146.7412563 180.7375970 168.7053866 145.3577500 179.6475358
 166.5957068 147.5909578 179.6315596 166.5726052 146.1933389 180.6438530
 166.5873425 144.6909625 178.5773618 166.5813881 146.1364737 177.5602644
 164.3602357 147.6296140 179.4704736 163.0253203 147.0466983 178.4742458
 164.2910002 147.7347926 176.4294638 165.7047742 148.1435952 177.4069588
 164.3609731 149.8605757 178.6291851 162.9605120 149.4712478 177.6256421
 164.2699548 150.1027877 175.5802164 165.6605354 150.4947619 176.5945471
 164.3180479 152.2441915 177.7645017 162.9157292 151.8507877 176.7752742
 164.2245892 152.4288654 174.7143420 165.6170986 152.8402493 175.7173350
 164.2747766 154.6297647 176.8487785 162.8790217 154.2143078 175.8493739
 165.5799208 155.2114951 174.7953196 164.0840697 156.1568999 174.9033585
 164.1838333 154.7838719 173.7873785 164.6520542 144.0929619 179.9561353
 163.1096585 144.9735741 179.7657896 164.0626181 146.8940562 181.0631875
 165.5978946 146.0327973 181.2152741 164.3597371 144.2400534 182.5070741
 162.8794861 145.1980040 182.3465076 164.0395385 147.1513520 183.4244737
 165.4985863 146.1774758 183.6041921 164.2476746 144.5808178 185.0748960
 162.7929449 145.5731222 184.8988867 164.0191845 147.5422743 185.8536315
 165.4694190 146.5548191 186.0291142 164.2387463 145.0191405 187.5771609
 162.7870939 146.0083802 187.4036289 165.4673060 146.9836533 188.5301465
 164.0189238 146.5902630 189.4742081 164.0027895 147.9724462 188.3635654
 164.5790187 145.2942503 176.4453470 163.0809227 145.0152412 177.3449758
 165.5577693 143.2309571 176.9492213 164.0320396 143.0249919 176.3368611
 164.6910450 142.6357473 179.3148266 164.4287210 141.4201249 178.1314306
 162.2435027 143.4814618 178.7999114 162.3868803 141.9126479 179.5764419
 162.2733367 140.7631193 177.4087990 162.2629557 142.2867440 176.5367341
 160.1102828 142.9290481 177.4753643 160.0314417 141.3999961 178.3677257
 160.3261578 140.1516438 176.1843392 160.3717045 141.6841868 175.3187974
 158.0128941 140.6821213 176.9805216 158.1321443 140.6480585 175.2085859
 158.0651053 142.2043538 176.0613582 172.5970000 138.4140000 170.8490000
 162.1820000 150.3780000 180.1460000 168.4498435 152.8812258 181.0848018
 166.9206208 152.8903423 181.0848476 166.3559748 151.4683454 181.0839514
 164.8277844 151.4749019 181.0833803 164.2562430 150.0750000 181.0830000
 162.9020000 150.0750000 181.0830000 164.9064269 149.0427992 181.0824242
 161.9950000 150.9790000 178.2880000 161.6239627 150.9786082 179.4214083
 161.6209482 150.3626945 181.0854991 168.8190424 152.3468952 181.9682020
 168.8197372 152.3459623 180.2032715 166.5572267 153.4299011 180.2024328
 166.5561634 153.4299044 181.9673625 166.7221151 150.9244740 181.9629224
 166.7220361 150.9259952 180.2027225 164.4605586 151.9933983 180.1911832
 164.4607875 151.9928719 181.9766810 162.5097631 150.9683881 181.0830000
 171.1280000 159.8170000  68.5660000 172.5777774 166.9182005  69.9921438
 171.0686515 166.8327848  69.9052115 170.5089757 165.9296163  70.9962000
 169.0102477 165.8740210  70.8293451 168.3911405 165.0072373  71.9023042
 166.8848159 165.1391808  71.8277451 166.2670844 164.3380000  70.6790000
 164.7210000 164.3380000  70.6790000 164.1136962 165.7647263  70.6790000
 164.6115752 166.6912788  69.5664628 164.0568467 168.1047891  69.7890727
 164.5643630 169.0682987  68.7210697 164.0124345 170.4794171  68.9418251
 164.5209850 171.4196350  67.8466482 163.9742930 172.8347717  68.0237523
 164.4868685 173.7521607  66.9258112 164.1975855 163.6881111  72.0260708
 164.5164433 164.5060878  73.2704143 163.9743105 163.8664234  74.5448002
 164.4023195 164.7303543  75.7249314 163.8860424 164.2090436  77.0595243
 164.3739724 165.1228103  78.1832741 163.8845094 164.6440682  79.5404483
 164.3723657 165.5550515  80.6543876 164.1661881 163.4673906  69.5126574
 164.5197005 161.9815280  69.4024780 164.1259989 161.0468091  70.5509994
 162.6179551 161.0621187  70.8059279 161.9434240 160.4122166  69.6154070
 160.4350011 160.4829084  69.6240254 159.9548935 159.7873068  68.3525470
 158.4468128 159.7840083  68.2604067 170.6660000 160.0850000  67.6110000
 170.5890455 159.7143397  67.6186543 170.5065611 159.3824972  69.3585043
 172.8729754 167.3196320  70.9678291 173.0131727 165.9162427  69.9024485
 170.7659720 166.4456836  68.9250912 170.6268237 167.8324455  70.0048742
 170.7722239 166.3228512  71.9832884 170.9374698 164.9207144  70.9169043
 168.7533187 165.4887845  69.8425598 168.5968951 166.8920287  70.9003450
 168.7252658 165.3452563  72.8885970 168.7053866 163.9617500  71.7985358
 166.5957068 166.1949578  71.7825596 166.5726052 164.7973389  72.7948530
 166.5873425 163.2949625  70.7283618 166.5813881 164.7404737  69.7112644
 164.3602357 166.2336140  71.6214736 163.0253203 165.6506983  70.6252458
 164.2910002 166.3387926  68.5804638 165.7047742 166.7475952  69.5579588
 164.3609731 168.4645757  70.7801851 162.9605120 168.0752478  69.7766421
 164.2699548 168.7067877  67.7312164 165.6605354 169.0987619  68.7455471
 164.3180479 170.8481915  69.9155017 162.9157292 170.4547877  68.9262742
 164.2245892 171.0328654  66.8653420 165.6170986 171.4442493  67.8683350
 164.2747766 173.2337647  68.9997785 162.8790217 172.8183078  68.0003739
 165.5799208 173.8154951  66.9463196 164.0840697 174.7608999  67.0543585
 164.1838333 173.3878719  65.9383785 164.6520542 162.6969619  72.1071353
 163.1096585 163.5775741  71.9167896 164.0626181 165.4980562  73.2141875
 165.5978946 164.6367973  73.3662741 164.3597371 162.8440534  74.6580741
 162.8794861 163.8020040  74.4975076 164.0395385 165.7553520  75.5754737
 165.4985863 164.7814758  75.7551921 164.2476746 163.1848178  77.2258960
 162.7929449 164.1771222  77.0498867 164.0191845 166.1462743  78.0046315
 165.4694190 165.1588191  78.1801142 164.2387463 163.6231405  79.7281609
 162.7870939 164.6123802  79.5546289 165.4673060 165.5876533  80.6811465
 164.0189238 165.1942630  81.6252081 164.0027895 166.5764462  80.5145654
 164.5790187 163.8982503  68.5963470 163.0809227 163.6192412  69.4959758
 165.5577693 161.8349571  69.1002213 164.0320396 161.6289919  68.4878611
 164.6910450 161.2397473  71.4658266 164.4287210 160.0241249  70.2824306
 162.2435027 162.0854618  70.9509114 162.3868803 160.5166479  71.7274419
 162.2733367 159.3671193  69.5597990 162.2629557 160.8907440  68.6877341
 160.1102828 161.5330481  69.6263643 160.0314417 160.0039961  70.5187257
 160.3261578 158.7556438  68.3353392 160.3717045 160.2881868  67.4697974
 158.0128941 159.2861213  69.1315216 158.1321443 159.2520585  67.3595859
 158.0651053 160.8083538  68.2123582 172.5970000 157.0180000  63.0000000
 162.1820000 168.9820000  72.2970000 168.4498435 171.4852258  73.2358018
 166.9206208 171.4943423  73.2358476 166.3559748 170.0723454  73.2349514
 164.8277844 170.0789019  73.2343803 164.2562430 168.6790000  73.2340000
 162.9020000 168.6790000  73.2340000 164.9064269 167.6467992  73.2334242
 161.9950000 169.5830000  70.4390000 161.6239627 169.5826082  71.5724083
 161.6209482 168.9666945  73.2364991 168.8190424 170.9508952  74.1192020
 168.8197372 170.9499623  72.3542715 166.5572267 172.0339011  72.3534328
 166.5561634 172.0339044  74.1183625 166.7221151 169.5284740  74.1139224
 166.7220361 169.5299952  72.3537225 164.4605586 170.5973983  72.3421832
 164.4607875 170.5968719  74.1276810 162.5097631 169.5723881  73.2340000
 171.1280000 159.8170000  86.5410000 172.5777774 166.9182005  87.9671438
 171.0686515 166.8327848  87.8802115 170.5089757 165.9296163  88.9712000
 169.0102477 165.8740210  88.8043451 168.3911405 165.0072373  89.8773042
 166.8848159 165.1391808  89.8027451 166.2670844 164.3380000  88.6540000
 164.7210000 164.3380000  88.6540000 164.1136962 165.7647263  88.6540000
 164.6115752 166.6912788  87.5414628 164.0568467 168.1047891  87.7640727
 164.5643630 169.0682987  86.6960697 164.0124345 170.4794171  86.9168251
 164.5209850 171.4196350  85.8216482 163.9742930 172.8347717  85.9987523
 164.4868685 173.7521607  84.9008112 164.1975855 163.6881111  90.0010708
 164.5164433 164.5060878  91.2454143 163.9743105 163.8664234  92.5198002
 164.4023195 164.7303543  93.6999314 163.8860424 164.2090436  95.0345243
 164.3739724 165.1228103  96.1582741 163.8845094 164.6440682  97.5154483
 164.3723657 165.5550515  98.6293876 164.1661881 163.4673906  87.4876574
 164.5197005 161.9815280  87.3774780 164.1259989 161.0468091  88.5259994
 162.6179551 161.0621187  88.7809279 161.9434240 160.4122166  87.5904070
 160.4350011 160.4829084  87.5990254 159.9548935 159.7873068  86.3275470
 158.4468128 159.7840083  86.2354067 170.6660000 160.0850000  85.5860000
 170.5890455 159.7143397  85.5936543 170.5065611 159.3824972  87.3335043
 172.8729754 167.3196320  88.9428291 173.0131727 165.9162427  87.8774485
 170.7659720 166.4456836  86.9000912 170.6268237 167.8324455  87.9798742
 170.7722239 166.3228512  89.9582884 170.9374698 164.9207144  88.8919043
 168.7533187 165.4887845  87.8175598 168.5968951 166.8920287  88.8753450
 168.7252658 165.3452563  90.8635970 168.7053866 163.9617500  89.7735358
 166.5957068 166.1949578  89.7575596 166.5726052 164.7973389  90.7698530
 166.5873425 163.2949625  88.7033618 166.5813881 164.7404737  87.6862644
 164.3602357 166.2336140  89.5964736 163.0253203 165.6506983  88.6002458
 164.2910002 166.3387926  86.5554638 165.7047742 166.7475952  87.5329588
 164.3609731 168.4645757  88.7551851 162.9605120 168.0752478  87.7516421
 164.2699548 168.7067877  85.7062164 165.6605354 169.0987619  86.7205471
 164.3180479 170.8481915  87.8905017 162.9157292 170.4547877  86.9012742
 164.2245892 171.0328654  84.8403420 165.6170986 171.4442493  85.8433350
 164.2747766 173.2337647  86.9747785 162.8790217 172.8183078  85.9753739
 165.5799208 173.8154951  84.9213196 164.0840697 174.7608999  85.0293585
 164.1838333 173.3878719  83.9133785 164.6520542 162.6969619  90.0821353
 163.1096585 163.5775741  89.8917896 164.0626181 165.4980562  91.1891875
 165.5978946 164.6367973  91.3412741 164.3597371 162.8440534  92.6330741
 162.8794861 163.8020040  92.4725076 164.0395385 165.7553520  93.5504737
 165.4985863 164.7814758  93.7301921 164.2476746 163.1848178  95.2008960
 162.7929449 164.1771222  95.0248867 164.0191845 166.1462743  95.9796315
 165.4694190 165.1588191  96.1551142 164.2387463 163.6231405  97.7031609
 162.7870939 164.6123802  97.5296289 165.4673060 165.5876533  98.6561465
 164.0189238 165.1942630  99.6002081 164.0027895 166.5764462  98.4895654
 164.5790187 163.8982503  86.5713470 163.0809227 163.6192412  87.4709758
 165.5577693 161.8349571  87.0752213 164.0320396 161.6289919  86.4628611
 164.6910450 161.2397473  89.4408266 164.4287210 160.0241249  88.2574306
 162.2435027 162.0854618  88.9259114 162.3868803 160.5166479  89.7024419
 162.2733367 159.3671193  87.5347990 162.2629557 160.8907440  86.6627341
 160.1102828 161.5330481  87.6013643 160.0314417 160.0039961  88.4937257
 160.3261578 158.7556438  86.3103392 160.3717045 160.2881868  85.4447974
 158.0128941 159.2861213  87.1065216 158.1321443 159.2520585  85.3345859
 158.0651053 160.8083538  86.1873582 172.5970000 157.0180000  80.9750000
 162.1820000 168.9820000  90.2720000 168.4498435 171.4852258  91.2108018
 166.9206208 171.4943423  91.2108476 166.3559748 170.0723454  91.2099514
 164.8277844 170.0789019  91.2093803 164.2562430 168.6790000  91.2090000
 162.9020000 168.6790000  91.2090000 164.9064269 167.6467992  91.2084242
 161.9950000 169.5830000  88.4140000 161.6239627 169.5826082  89.5474083
 161.6209482 168.9666945  91.2114991 168.8190424 170.9508952  92.0942020
 168.8197372 170.9499623  90.3292715 166.5572267 172.0339011  90.3284328
 166.5561634 172.0339044  92.0933625 166.7221151 169.5284740  92.0889224
 166.7220361 169.5299952  90.3287225 164.4605586 170.5973983  90.3171832
 164.4607875 170.5968719  92.1026810 162.5097631 169.5723881  91.2090000
 171.1280000 159.8170000 104.5160000 172.5777774 166.9182005 105.9421438
 171.0686515 166.8327848 105.8552115 170.5089757 165.9296163 106.9462000
 169.0102477 165.8740210 106.7793451 168.3911405 165.0072373 107.8523042
 166.8848159 165.1391808 107.7777451 166.2670844 164.3380000 106.6290000
 164.7210000 164.3380000 106.6290000 164.1136962 165.7647263 106.6290000
 164.6115752 166.6912788 105.5164628 164.0568467 168.1047891 105.7390727
 164.5643630 169.0682987 104.6710697 164.0124345 170.4794171 104.8918251
 164.5209850 171.4196350 103.7966482 163.9742930 172.8347717 103.9737523
 164.4868685 173.7521607 102.8758112 164.1975855 163.6881111 107.9760708
 164.5164433 164.5060878 109.2204143 163.9743105 163.8664234 110.4948002
 164.4023195 164.7303543 111.6749314 163.8860424 164.2090436 113.0095243
 164.3739724 165.1228103 114.1332741 163.8845094 164.6440682 115.4904483
 164.3723657 165.5550515 116.6043876 164.1661881 163.4673906 105.4626574
 164.5197005 161.9815280 105.3524780 164.1259989 161.0468091 106.5009994
 162.6179551 161.0621187 106.7559279 161.9434240 160.4122166 105.5654070
 160.4350011 160.4829084 105.5740254 159.9548935 159.7873068 104.3025470
 158.4468128 159.7840083 104.2104067 170.6660000 160.0850000 103.5610000
 170.5890455 159.7143397 103.5686543 170.5065611 159.3824972 105.3085043
 172.8729754 167.3196320 106.9178291 173.0131727 165.9162427 105.8524485
 170.7659720 166.4456836 104.8750912 170.6268237 167.8324455 105.9548742
 170.7722239 166.3228512 107.9332884 170.9374698 164.9207144 106.8669043
 168.7533187 165.4887845 105.7925598 168.5968951 166.8920287 106.8503450
 168.7252658 165.3452563 108.8385970 168.7053866 163.9617500 107.7485358
 166.5957068 166.1949578 107.7325596 166.5726052 164.7973389 108.7448530
 166.5873425 163.2949625 106.6783618 166.5813881 164.7404737 105.6612644
 164.3602357 166.2336140 107.5714736 163.0253203 165.6506983 106.5752458
 164.2910002 166.3387926 104.5304638 165.7047742 166.7475952 105.5079588
 164.3609731 168.4645757 106.7301851 162.9605120 168.0752478 105.7266421
 164.2699548 168.7067877 103.6812164 165.6605354 169.0987619 104.6955471
 164.3180479 170.8481915 105.8655017 162.9157292 170.4547877 104.8762742
 164.2245892 171.0328654 102.8153420 165.6170986 171.4442493 103.8183350
 164.2747766 173.2337647 104.9497785 162.8790217 172.8183078 103.9503739
 165.5799208 173.8154951 102.8963196 164.0840697 174.7608999 103.0043585
 164.1838333 173.3878719 101.8883785 164.6520542 162.6969619 108.0571353
 163.1096585 163.5775741 107.8667896 164.0626181 165.4980562 109.1641875
 165.5978946 164.6367973 109.3162741 164.3597371 162.8440534 110.6080741
 162.8794861 163.8020040 110.4475076 164.0395385 165.7553520 111.5254737
 165.4985863 164.7814758 111.7051921 164.2476746 163.1848178 113.1758960
 162.7929449 164.1771222 112.9998867 164.0191845 166.1462743 113.9546315
 165.4694190 165.1588191 114.1301142 164.2387463 163.6231405 115.6781609
 162.7870939 164.6123802 115.5046289 165.4673060 165.5876533 116.6311465
 164.0189238 165.1942630 117.5752081 164.0027895 166.5764462 116.4645654
 164.5790187 163.8982503 104.5463470 163.0809227 163.6192412 105.4459758
 165.5577693 161.8349571 105.0502213 164.0320396 161.6289919 104.4378611
 164.6910450 161.2397473 107.4158266 164.4287210 160.0241249 106.2324306
 162.2435027 162.0854618 106.9009114 162.3868803 160.5166479 107.6774419
 162.2733367 159.3671193 105.5097990 162.2629557 160.8907440 104.6377341
 160.1102828 161.5330481 105.5763643 160.0314417 160.0039961 106.4687257
 160.3261578 158.7556438 104.2853392 160.3717045 160.2881868 103.4197974
 158.0128941 159.2861213 105.0815216 158.1321443 159.2520585 103.3095859
 158.0651053 160.8083538 104.1623582 172.5970000 157.0180000  98.9500000
 162.1820000 168.9820000 108.2470000 168.4498435 171.4852258 109.1858018
 166.9206208 171.4943423 109.1858476 166.3559748 170.0723454 109.1849514
 164.8277844 170.0789019 109.1843803 164.2562430 168.6790000 109.1840000
 162.9020000 168.6790000 109.1840000 164.9064269 167.6467992 109.1834242
 161.9950000 169.5830000 106.3890000 161.6239627 169.5826082 107.5224083
 161.6209482 168.9666945 109.1864991 168.8190424 170.9508952 110.0692020
 168.8197372 170.9499623 108.3042715 166.5572267 172.0339011 108.3034328
 166.5561634 172.0339044 110.0683625 166.7221151 169.5284740 110.0639224
 166.7220361 169.5299952 108.3037225 164.4605586 170.5973983 108.2921832
 164.4607875 170.5968719 110.0776810 162.5097631 169.5723881 109.1840000
 171.1280000 159.8170000 122.4900000 172.5777774 166.9182005 123.9161438
 171.0686515 166.8327848 123.8292115 170.5089757 165.9296163 124.9202000
 169.0102477 165.8740210 124.7533451 168.3911405 165.0072373 125.8263042
 166.8848159 165.1391808 125.7517451 166.2670844 164.3380000 124.6030000
 164.7210000 164.3380000 124.6030000 164.1136962 165.7647263 124.6030000
 164.6115752 166.6912788 123.4904628 164.0568467 168.1047891 123.7130727
 164.5643630 169.0682987 122.6450697 164.0124345 170.4794171 122.8658251
 164.5209850 171.4196350 121.7706482 163.9742930 172.8347717 121.9477523
 164.4868685 173.7521607 120.8498112 164.1975855 163.6881111 125.9500708
 164.5164433 164.5060878 127.1944143 163.9743105 163.8664234 128.4688002
 164.4023195 164.7303543 129.6489314 163.8860424 164.2090436 130.9835243
 164.3739724 165.1228103 132.1072741 163.8845094 164.6440682 133.4644483
 164.3723657 165.5550515 134.5783876 164.1661881 163.4673906 123.4366574
 164.5197005 161.9815280 123.3264780 164.1259989 161.0468091 124.4749994
 162.6179551 161.0621187 124.7299279 161.9434240 160.4122166 123.5394070
 160.4350011 160.4829084 123.5480254 159.9548935 159.7873068 122.2765470
 158.4468128 159.7840083 122.1844067 170.6660000 160.0850000 121.5350000
 170.5890455 159.7143397 121.5426543 170.5065611 159.3824972 123.2825043
 172.8729754 167.3196320 124.8918291 173.0131727 165.9162427 123.8264485
 170.7659720 166.4456836 122.8490912 170.6268237 167.8324455 123.9288742
 170.7722239 166.3228512 125.9072884 170.9374698 164.9207144 124.8409043
 168.7533187 165.4887845 123.7665598 168.5968951 166.8920287 124.8243450
 168.7252658 165.3452563 126.8125970 168.7053866 163.9617500 125.7225358
 166.5957068 166.1949578 125.7065596 166.5726052 164.7973389 126.7188530
 166.5873425 163.2949625 124.6523618 166.5813881 164.7404737 123.6352644
 164.3602357 166.2336140 125.5454736 163.0253203 165.6506983 124.5492458
 164.2910002 166.3387926 122.5044638 165.7047742 166.7475952 123.4819588
 164.3609731 168.4645757 124.7041851 162.9605120 168.0752478 123.7006421
 164.2699548 168.7067877 121.6552164 165.6605354 169.0987619 122.6695471
 164.3180479 170.8481915 123.8395017 162.9157292 170.4547877 122.8502742
 164.2245892 171.0328654 120.7893420 165.6170986 171.4442493 121.7923350
 164.2747766 173.2337647 122.9237785 162.8790217 172.8183078 121.9243739
 165.5799208 173.8154951 120.8703196 164.0840697 174.7608999 120.9783585
 164.1838333 173.3878719 119.8623785 164.6520542 162.6969619 126.0311353
 163.1096585 163.5775741 125.8407896 164.0626181 165.4980562 127.1381875
 165.5978946 164.6367973 127.2902741 164.3597371 162.8440534 128.5820741
 162.8794861 163.8020040 128.4215076 164.0395385 165.7553520 129.4994737
 165.4985863 164.7814758 129.6791921 164.2476746 163.1848178 131.1498960
 162.7929449 164.1771222 130.9738867 164.0191845 166.1462743 131.9286315
 165.4694190 165.1588191 132.1041142 164.2387463 163.6231405 133.6521609
 162.7870939 164.6123802 133.4786289 165.4673060 165.5876533 134.6051465
 164.0189238 165.1942630 135.5492081 164.0027895 166.5764462 134.4385654
 164.5790187 163.8982503 122.5203470 163.0809227 163.6192412 123.4199758
 165.5577693 161.8349571 123.0242213 164.0320396 161.6289919 122.4118611
 164.6910450 161.2397473 125.3898266 164.4287210 160.0241249 124.2064306
 162.2435027 162.0854618 124.8749114 162.3868803 160.5166479 125.6514419
 162.2733367 159.3671193 123.4837990 162.2629557 160.8907440 122.6117341
 160.1102828 161.5330481 123.5503643 160.0314417 160.0039961 124.4427257
 160.3261578 158.7556438 122.2593392 160.3717045 160.2881868 121.3937974
 158.0128941 159.2861213 123.0555216 158.1321443 159.2520585 121.2835859
 158.0651053 160.8083538 122.1363582 172.5970000 157.0180000 116.9240000
 162.1820000 168.9820000 126.2210000 168.4498435 171.4852258 127.1598018
 166.9206208 171.4943423 127.1598476 166.3559748 170.0723454 127.1589514
 164.8277844 170.0789019 127.1583803 164.2562430 168.6790000 127.1580000
 162.9020000 168.6790000 127.1580000 164.9064269 167.6467992 127.1574242
 161.9950000 169.5830000 124.3630000 161.6239627 169.5826082 125.4964083
 161.6209482 168.9666945 127.1604991 168.8190424 170.9508952 128.0432020
 168.8197372 170.9499623 126.2782715 166.5572267 172.0339011 126.2774328
 166.5561634 172.0339044 128.0423625 166.7221151 169.5284740 128.0379224
 166.7220361 169.5299952 126.2777225 164.4605586 170.5973983 126.2661832
 164.4607875 170.5968719 128.0516810 162.5097631 169.5723881 127.1580000
 171.1280000 159.8170000 140.4650000 172.5777774 166.9182005 141.8911438
 171.0686515 166.8327848 141.8042115 170.5089757 165.9296163 142.8952000
 169.0102477 165.8740210 142.7283451 168.3911405 165.0072373 143.8013042
 166.8848159 165.1391808 143.7267451 166.2670844 164.3380000 142.5780000
 164.7210000 164.3380000 142.5780000 164.1136962 165.7647263 142.5780000
 164.6115752 166.6912788 141.4654628 164.0568467 168.1047891 141.6880727
 164.5643630 169.0682987 140.6200697 164.0124345 170.4794171 140.8408251
 164.5209850 171.4196350 139.7456482 163.9742930 172.8347717 139.9227523
 164.4868685 173.7521607 138.8248112 164.1975855 163.6881111 143.9250708
 164.5164433 164.5060878 145.1694143 163.9743105 163.8664234 146.4438002
 164.4023195 164.7303543 147.6239314 163.8860424 164.2090436 148.9585243
 164.3739724 165.1228103 150.0822741 163.8845094 164.6440682 151.4394483
 164.3723657 165.5550515 152.5533876 164.1661881 163.4673906 141.4116574
 164.5197005 161.9815280 141.3014780 164.1259989 161.0468091 142.4499994
 162.6179551 161.0621187 142.7049279 161.9434240 160.4122166 141.5144070
 160.4350011 160.4829084 141.5230254 159.9548935 159.7873068 140.2515470
 158.4468128 159.7840083 140.1594067 170.6660000 160.0850000 139.5100000
 170.5890455 159.7143397 139.5176543 170.5065611 159.3824972 141.2575043
 172.8729754 167.3196320 142.8668291 173.0131727 165.9162427 141.8014485
 170.7659720 166.4456836 140.8240912 170.6268237 167.8324455 141.9038742
 170.7722239 166.3228512 143.8822884 170.9374698 164.9207144 142.8159043
 168.7533187 165.4887845 141.7415598 168.5968951 166.8920287 142.7993450
 168.7252658 165.3452563 144.7875970 168.7053866 163.9617500 143.6975358
 166.5957068 166.1949578 143.6815596 166.5726052 164.7973389 144.6938530
 166.5873425 163.2949625 142.6273618 166.5813881 164.7404737 141.6102644
 164.3602357 166.2336140 143.5204736 163.0253203 165.6506983 142.5242458
 164.2910002 166.3387926 140.4794638 165.7047742 166.7475952 141.4569588
 164.3609731 168.4645757 142.6791851 162.9605120 168.0752478 141.6756421
 164.2699548 168.7067877 139.6302164 165.6605354 169.0987619 140.6445471
 164.3180479 170.8481915 141.8145017 162.9157292 170.4547877 140.8252742
 164.2245892 171.0328654 138.7643420 165.6170986 171.4442493 139.7673350
 164.2747766 173.2337647 140.8987785 162.8790217 172.8183078 139.8993739
 165.5799208 173.8154951 138.8453196 164.0840697 174.7608999 138.9533585
 164.1838333 173.3878719 137.8373785 164.6520542 162.6969619 144.0061353
 163.1096585 163.5775741 143.8157896 164.0626181 165.4980562 145.1131875
 165.5978946 164.6367973 145.2652741 164.3597371 162.8440534 146.5570741
 162.8794861 163.8020040 146.3965076 164.0395385 165.7553520 147.4744737
 165.4985863 164.7814758 147.6541921 164.2476746 163.1848178 149.1248960
 162.7929449 164.1771222 148.9488867 164.0191845 166.1462743 149.9036315
 165.4694190 165.1588191 150.0791142 164.2387463 163.6231405 151.6271609
 162.7870939 164.6123802 151.4536289 165.4673060 165.5876533 152.5801465
 164.0189238 165.1942630 153.5242081 164.0027895 166.5764462 152.4135654
 164.5790187 163.8982503 140.4953470 163.0809227 163.6192412 141.3949758
 165.5577693 161.8349571 140.9992213 164.0320396 161.6289919 140.3868611
 164.6910450 161.2397473 143.3648266 164.4287210 160.0241249 142.1814306
 162.2435027 162.0854618 142.8499114 162.3868803 160.5166479 143.6264419
 162.2733367 159.3671193 141.4587990 162.2629557 160.8907440 140.5867341
 160.1102828 161.5330481 141.5253643 160.0314417 160.0039961 142.4177257
 160.3261578 158.7556438 140.2343392 160.3717045 160.2881868 139.3687974
 158.0128941 159.2861213 141.0305216 158.1321443 159.2520585 139.2585859
 158.0651053 160.8083538 140.1113582 172.5970000 157.0180000 134.8990000
 162.1820000 168.9820000 144.1960000 168.4498435 171.4852258 145.1348018
 166.9206208 171.4943423 145.1348476 166.3559748 170.0723454 145.1339514
 164.8277844 170.0789019 145.1333803 164.2562430 168.6790000 145.1330000
 162.9020000 168.6790000 145.1330000 164.9064269 167.6467992 145.1324242
 161.9950000 169.5830000 142.3380000 161.6239627 169.5826082 143.4714083
 161.6209482 168.9666945 145.1354991 168.8190424 170.9508952 146.0182020
 168.8197372 170.9499623 144.2532715 166.5572267 172.0339011 144.2524328
 166.5561634 172.0339044 146.0173625 166.7221151 169.5284740 146.0129224
 166.7220361 169.5299952 144.2527225 164.4605586 170.5973983 144.2411832
 164.4607875 170.5968719 146.0266810 162.5097631 169.5723881 145.1330000
 171.1280000 159.8170000 158.4400000 172.5777774 166.9182005 159.8661438
 171.0686515 166.8327848 159.7792115 170.5089757 165.9296163 160.8702000
 169.0102477 165.8740210 160.7033451 168.3911405 165.0072373 161.7763042
 166.8848159 165.1391808 161.7017451 166.2670844 164.3380000 160.5530000
 164.7210000 164.3380000 160.5530000 164.1136962 165.7647263 160.5530000
 164.6115752 166.6912788 159.4404628 164.0568467 168.1047891 159.6630727
 164.5643630 169.0682987 158.5950697 164.0124345 170.4794171 158.8158251
 164.5209850 171.4196350 157.7206482 163.9742930 172.8347717 157.8977523
 164.4868685 173.7521607 156.7998112 164.1975855 163.6881111 161.9000708
 164.5164433 164.5060878 163.1444143 163.9743105 163.8664234 164.4188002
 164.4023195 164.7303543 165.5989314 163.8860424 164.2090436 166.9335243
 164.3739724 165.1228103 168.0572741 163.8845094 164.6440682 169.4144483
 164.3723657 165.5550515 170.5283876 164.1661881 163.4673906 159.3866574
 164.5197005 161.9815280 159.2764780 164.1259989 161.0468091 160.4249994
 162.6179551 161.0621187 160.6799279 161.9434240 160.4122166 159.4894070
 160.4350011 160.4829084 159.4980254 159.9548935 159.7873068 158.2265470
 158.4468128 159.7840083 158.1344067 170.6660000 160.0850000 157.4850000
 170.5890455 159.7143397 157.4926543 170.5065611 159.3824972 159.2325043
 172.8729754 167.3196320 160.8418291 173.0131727 165.9162427 159.7764485
 170.7659720 166.4456836 158.7990912 170.6268237 167.8324455 159.8788742
 170.7722239 166.3228512 161.8572884 170.9374698 164.9207144 160.7909043
 168.7533187 165.4887845 159.7165598 168.5968951 166.8920287 160.7743450
 168.7252658 165.3452563 162.7625970 168.7053866 163.9617500 161.6725358
 166.5957068 166.1949578 161.6565596 166.5726052 164.7973389 162.6688530
 166.5873425 163.2949625 160.6023618 166.5813881 164.7404737 159.5852644
 164.3602357 166.2336140 161.4954736 163.0253203 165.6506983 160.4992458
 164.2910002 166.3387926 158.4544638 165.7047742 166.7475952 159.4319588
 164.3609731 168.4645757 160.6541851 162.9605120 168.0752478 159.6506421
 164.2699548 168.7067877 157.6052164 165.6605354 169.0987619 158.6195471
 164.3180479 170.8481915 159.7895017 162.9157292 170.4547877 158.8002742
 164.2245892 171.0328654 156.7393420 165.6170986 171.4442493 157.7423350
 164.2747766 173.2337647 158.8737785 162.8790217 172.8183078 157.8743739
 165.5799208 173.8154951 156.8203196 164.0840697 174.7608999 156.9283585
 164.1838333 173.3878719 155.8123785 164.6520542 162.6969619 161.9811353
 163.1096585 163.5775741 161.7907896 164.0626181 165.4980562 163.0881875
 165.5978946 164.6367973 163.2402741 164.3597371 162.8440534 164.5320741
 162.8794861 163.8020040 164.3715076 164.0395385 165.7553520 165.4494737
 165.4985863 164.7814758 165.6291921 164.2476746 163.1848178 167.0998960
 162.7929449 164.1771222 166.9238867 164.0191845 166.1462743 167.8786315
 165.4694190 165.1588191 168.0541142 164.2387463 163.6231405 169.6021609
 162.7870939 164.6123802 169.4286289 165.4673060 165.5876533 170.5551465
 164.0189238 165.1942630 171.4992081 164.0027895 166.5764462 170.3885654
 164.5790187 163.8982503 158.4703470 163.0809227 163.6192412 159.3699758
 165.5577693 161.8349571 158.9742213 164.0320396 161.6289919 158.3618611
 164.6910450 161.2397473 161.3398266 164.4287210 160.0241249 160.1564306
 162.2435027 162.0854618 160.8249114 162.3868803 160.5166479 161.6014419
 162.2733367 159.3671193 159.4337990 162.2629557 160.8907440 158.5617341
 160.1102828 161.5330481 159.5003643 160.0314417 160.0039961 160.3927257
 160.3261578 158.7556438 158.2093392 160.3717045 160.2881868 157.3437974
 158.0128941 159.2861213 159.0055216 158.1321443 159.2520585 157.2335859
 158.0651053 160.8083538 158.0863582 172.5970000 157.0180000 152.8740000
 162.1820000 168.9820000 162.1710000 168.4498435 171.4852258 163.1098018
 166.9206208 171.4943423 163.1098476 166.3559748 170.0723454 163.1089514
 164.8277844 170.0789019 163.1083803 164.2562430 168.6790000 163.1080000
 162.9020000 168.6790000 163.1080000 164.9064269 167.6467992 163.1074242
 161.9950000 169.5830000 160.3130000 161.6239627 169.5826082 161.4464083
 161.6209482 168.9666945 163.1104991 168.8190424 170.9508952 163.9932020
 168.8197372 170.9499623 162.2282715 166.5572267 172.0339011 162.2274328
 166.5561634 172.0339044 163.9923625 166.7221151 169.5284740 163.9879224
 166.7220361 169.5299952 162.2277225 164.4605586 170.5973983 162.2161832
 164.4607875 170.5968719 164.0016810 162.5097631 169.5723881 163.1080000
 171.1280000 159.8170000 176.4150000 172.5777774 166.9182005 177.8411438
 171.0686515 166.8327848 177.7542115 170.5089757 165.9296163 178.8452000
 169.0102477 165.8740210 178.6783451 168.3911405 165.0072373 179.7513042
 166.8848159 165.1391808 179.6767451 166.2670844 164.3380000 178.5280000
 164.7210000 164.3380000 178.5280000 164.1136962 165.7647263 178.5280000
 164.6115752 166.6912788 177.4154628 164.0568467 168.1047891 177.6380727
 164.5643630 169.0682987 176.5700697 164.0124345 170.4794171 176.7908251
 164.5209850 171.4196350 175.6956482 163.9742930 172.8347717 175.8727523
 164.4868685 173.7521607 174.7748112 164.1975855 163.6881111 179.8750708
 164.5164433 164.5060878 181.1194143 163.9743105 163.8664234 182.3938002
 164.4023195 164.7303543 183.5739314 163.8860424 164.2090436 184.9085243
 164.3739724 165.1228103 186.0322741 163.8845094 164.6440682 187.3894483
 164.3723657 165.5550515 188.5033876 164.1661881 163.4673906 177.3616574
 164.5197005 161.9815280 177.2514780 164.1259989 161.0468091 178.3999994
 162.6179551 161.0621187 178.6549279 161.9434240 160.4122166 177.4644070
 160.4350011 160.4829084 177.4730254 159.9548935 159.7873068 176.2015470
 158.4468128 159.7840083 176.1094067 170.6660000 160.0850000 175.4600000
 170.5890455 159.7143397 175.4676543 170.5065611 159.3824972 177.2075043
 172.8729754 167.3196320 178.8168291 173.0131727 165.9162427 177.7514485
 170.7659720 166.4456836 176.7740912 170.6268237 167.8324455 177.8538742
 170.7722239 166.3228512 179.8322884 170.9374698 164.9207144 178.7659043
 168.7533187 165.4887845 177.6915598 168.5968951 166.8920287 178.7493450
 168.7252658 165.3452563 180.7375970 168.7053866 163.9617500 179.6475358
 166.5957068 166.1949578 179.6315596 166.5726052 164.7973389 180.6438530
 166.5873425 163.2949625 178.5773618 166.5813881 164.7404737 177.5602644
 164.3602357 166.2336140 179.4704736 163.0253203 165.6506983 178.4742458
 164.2910002 166.3387926 176.4294638 165.7047742 166.7475952 177.4069588
 164.3609731 168.4645757 178.6291851 162.9605120 168.0752478 177.6256421
 164.2699548 168.7067877 175.5802164 165.6605354 169.0987619 176.5945471
 164.3180479 170.8481915 177.7645017 162.9157292 170.4547877 176.7752742
 164.2245892 171.0328654 174.7143420 165.6170986 171.4442493 175.7173350
 164.2747766 173.2337647 176.8487785 162.8790217 172.8183078 175.8493739
 165.5799208 173.8154951 174.7953196 164.0840697 174.7608999 174.9033585
 164.1838333 173.3878719 173.7873785 164.6520542 162.6969619 179.9561353
 163.1096585 163.5775741 179.7657896 164.0626181 165.4980562 181.0631875
 165.5978946 164.6367973 181.2152741 164.3597371 162.8440534 182.5070741
 162.8794861 163.8020040 182.3465076 164.0395385 165.7553520 183.4244737
 165.4985863 164.7814758 183.6041921 164.2476746 163.1848178 185.0748960
 162.7929449 164.1771222 184.8988867 164.0191845 166.1462743 185.8536315
 165.4694190 165.1588191 186.0291142 164.2387463 163.6231405 187.5771609
 162.7870939 164.6123802 187.4036289 165.4673060 165.5876533 188.5301465
 164.0189238 165.1942630 189.4742081 164.0027895 166.5764462 188.3635654
 164.5790187 163.8982503 176.4453470 163.0809227 163.6192412 177.3449758
 165.5577693 161.8349571 176.9492213 164.0320396 161.6289919 176.3368611
 164.6910450 161.2397473 179.3148266 164.4287210 160.0241249 178.1314306
 162.2435027 162.0854618 178.7999114 162.3868803 160.5166479 179.5764419
 162.2733367 159.3671193 177.4087990 162.2629557 160.8907440 176.5367341
 160.1102828 161.5330481 177.4753643 160.0314417 160.0039961 178.3677257
 160.3261578 158.7556438 176.1843392 160.3717045 160.2881868 175.3187974
 158.0128941 159.2861213 176.9805216 158.1321443 159.2520585 175.2085859
 158.0651053 160.8083538 176.0613582 172.5970000 157.0180000 170.8490000
 162.1820000 168.9820000 180.1460000 168.4498435 171.4852258 181.0848018
 166.9206208 171.4943423 181.0848476 166.3559748 170.0723454 181.0839514
 164.8277844 170.0789019 181.0833803 164.2562430 168.6790000 181.0830000
 162.9020000 168.6790000 181.0830000 164.9064269 167.6467992 181.0824242
 161.9950000 169.5830000 178.2880000 161.6239627 169.5826082 179.4214083
 161.6209482 168.9666945 181.0854991 168.8190424 170.9508952 181.9682020
 168.8197372 170.9499623 180.2032715 166.5572267 172.0339011 180.2024328
 166.5561634 172.0339044 181.9673625 166.7221151 169.5284740 181.9629224
 166.7220361 169.5299952 180.2027225 164.4605586 170.5973983 180.1911832
 164.4607875 170.5968719 181.9766810 162.5097631 169.5723881 181.0830000
 171.1280000 178.4210000  68.5660000 172.5777774 185.5222005  69.9921438
 171.0686515 185.4367848  69.9052115 170.5089757 184.5336163  70.9962000
 169.0102477 184.4780210  70.8293451 168.3911405 183.6112373  71.9023042
 166.8848159 183.7431808  71.8277451 166.2670844 182.9420000  70.6790000
 164.7210000 182.9420000  70.6790000 164.1136962 184.3687263  70.6790000
 164.6115752 185.2952788  69.5664628 164.0568467 186.7087891  69.7890727
 164.5643630 187.6722987  68.7210697 164.0124345 189.0834171  68.9418251
 164.5209850 190.0236350  67.8466482 163.9742930 191.4387717  68.0237523
 164.4868685 192.3561607  66.9258112 164.1975855 182.2921111  72.0260708
 164.5164433 183.1100878  73.2704143 163.9743105 182.4704234  74.5448002
 164.4023195 183.3343543  75.7249314 163.8860424 182.8130436  77.0595243
 164.3739724 183.7268103  78.1832741 163.8845094 183.2480682  79.5404483
 164.3723657 184.1590515  80.6543876 164.1661881 182.0713906  69.5126574
 164.5197005 180.5855280  69.4024780 164.1259989 179.6508091  70.5509994
 162.6179551 179.6661187  70.8059279 161.9434240 179.0162166  69.6154070
 160.4350011 179.0869084  69.6240254 159.9548935 178.3913068  68.3525470
 158.4468128 178.3880083  68.2604067 170.6660000 178.6890000  67.6110000
 170.5890455 178.3183397  67.6186543 170.5065611 177.9864972  69.3585043
 172.8729754 185.9236320  70.9678291 173.0131727 184.5202427  69.9024485
 170.7659720 185.0496836  68.9250912 170.6268237 186.4364455  70.0048742
 170.7722239 184.9268512  71.9832884 170.9374698 183.5247144  70.9169043
 168.7533187 184.0927845  69.8425598 168.5968951 185.4960287  70.9003450
 168.7252658 183.9492563  72.8885970 168.7053866 182.5657500  71.7985358
 166.5957068 184.7989578  71.7825596 166.5726052 183.4013389  72.7948530
 166.5873425 181.8989625  70.7283618 166.5813881 183.3444737  69.7112644
 164.3602357 184.8376140  71.6214736 163.0253203 184.2546983  70.6252458
 164.2910002 184.9427926  68.5804638 165.7047742 185.3515952  69.5579588
 164.3609731 187.0685757  70.7801851 162.9605120 186.6792478  69.7766421
 164.2699548 187.3107877  67.7312164 165.6605354 187.7027619  68.7455471
 164.3180479 189.4521915  69.9155017 162.9157292 189.0587877  68.9262742
 164.2245892 189.6368654  66.8653420 165.6170986 190.0482493  67.8683350
 164.2747766 191.8377647  68.9997785 162.8790217 191.4223078  68.0003739
 165.5799208 192.4194951  66.9463196 164.0840697 193.3648999  67.0543585
 164.1838333 191.9918719  65.9383785 164.6520542 181.3009619  72.1071353
 163.1096585 182.1815741  71.9167896 164.0626181 184.1020562  73.2141875
 165.5978946 183.2407973  73.3662741 164.3597371 181.4480534  74.6580741
 162.8794861 182.4060040  74.4975076 164.0395385 184.3593520  75.5754737
 165.4985863 183.3854758  75.7551921 164.2476746 181.7888178  77.2258960
 162.7929449 182.7811222  77.0498867 164.0191845 184.7502743  78.0046315
 165.4694190 183.7628191  78.1801142 164.2387463 182.2271405  79.7281609
 162.7870939 183.2163802  79.5546289 165.4673060 184.1916533  80.6811465
 164.0189238 183.7982630  81.6252081 164.0027895 185.1804462  80.5145654
 164.5790187 182.5022503  68.5963470 163.0809227 182.2232412  69.4959758
 165.5577693 180.4389571  69.1002213 164.0320396 180.2329919  68.4878611
 164.6910450 179.8437473  71.4658266 164.4287210 178.6281249  70.2824306
 162.2435027 180.6894618  70.9509114 162.3868803 179.1206479  71.7274419
 162.2733367 177.9711193  69.5597990 162.2629557 179.4947440  68.6877341
 160.1102828 180.1370481  69.6263643 160.0314417 178.6079961  70.5187257
 160.3261578 177.3596438  68.3353392 160.3717045 178.8921868  67.4697974
 158.0128941 177.8901213  69.1315216 158.1321443 177.8560585  67.3595859
 158.0651053 179.4123538  68.2123582 172.5970000 175.6220000  63.0000000
 162.1820000 187.5860000  72.2970000 168.4498435 190.0892258  73.2358018
 166.9206208 190.0983423  73.2358476 166.3559748 188.6763454  73.2349514
 164.8277844 188.6829019  73.2343803 164.2562430 187.2830000  73.2340000
 162.9020000 187.2830000  73.2340000 164.9064269 186.2507992  73.2334242
 161.9950000 188.1870000  70.4390000 161.6239627 188.1866082  71.5724083
 161.6209482 187.5706945  73.2364991 168.8190424 189.5548952  74.1192020
 168.8197372 189.5539623  72.3542715 166.5572267 190.6379011  72.3534328
 166.5561634 190.6379044  74.1183625 166.7221151 188.1324740  74.1139224
 166.7220361 188.1339952  72.3537225 164.4605586 189.2013983  72.3421832
 164.4607875 189.2008719  74.1276810 162.5097631 188.1763881  73.2340000
 171.1280000 178.4210000  86.5410000 172.5777774 185.5222005  87.9671438
 171.0686515 185.4367848  87.8802115 170.5089757 184.5336163  88.9712000
 169.0102477 184.4780210  88.8043451 168.3911405 183.6112373  89.8773042
 166.8848159 183.7431808  89.8027451 166.2670844 182.9420000  88.6540000
 164.7210000 182.9420000  88.6540000 164.1136962 184.3687263  88.6540000
 164.6115752 185.2952788  87.5414628 164.0568467 186.7087891  87.7640727
 164.5643630 187.6722987  86.6960697 164.0124345 189.0834171  86.9168251
 164.5209850 190.0236350  85.8216482 163.9742930 191.4387717  85.9987523
 164.4868685 192.3561607  84.9008112 164.1975855 182.2921111  90.0010708
 164.5164433 183.1100878  91.2454143 163.9743105 182.4704234  92.5198002
 164.4023195 183.3343543  93.6999314 163.8860424 182.8130436  95.0345243
 164.3739724 183.7268103  96.1582741 163.8845094 183.2480682  97.5154483
 164.3723657 184.1590515  98.6293876 164.1661881 182.0713906  87.4876574
 164.5197005 180.5855280  87.3774780 164.1259989 179.6508091  88.5259994
 162.6179551 179.6661187  88.7809279 161.9434240 179.0162166  87.5904070
 160.4350011 179.0869084  87.5990254 159.9548935 178.3913068  86.3275470
 158.4468128 178.3880083  86.2354067 170.6660000 178.6890000  85.5860000
 170.5890455 178.3183397  85.5936543 170.5065611 177.9864972  87.3335043
 172.8729754 185.9236320  88.9428291 173.0131727 184.5202427  87.8774485
 170.7659720 185.0496836  86.9000912 170.6268237 186.4364455  87.9798742
 170.7722239 184.9268512  89.9582884 170.9374698 183.5247144  88.8919043
 168.7533187 184.0927845  87.8175598 168.5968951 185.4960287  88.8753450
 168.7252658 183.9492563  90.8635970 168.7053866 182.5657500  89.7735358
 166.5957068 184.7989578  89.7575596 166.5726052 183.4013389  90.7698530
 166.5873425 181.8989625  88.7033618 166.5813881 183.3444737  87.6862644
 164.3602357 184.8376140  89.5964736 163.0253203 184.2546983  88.6002458
 164.2910002 184.9427926  86.5554638 165.7047742 185.3515952  87.5329588
 164.3609731 187.0685757  88.7551851 162.9605120 186.6792478  87.7516421
 164.2699548 187.3107877  85.7062164 165.6605354 187.7027619  86.7205471
 164.3180479 189.4521915  87.8905017 162.9157292 189.0587877  86.9012742
 164.2245892 189.6368654  84.8403420 165.6170986 190.0482493  85.8433350
 164.2747766 191.8377647  86.9747785 162.8790217 191.4223078  85.9753739
 165.5799208 192.4194951  84.9213196 164.0840697 193.3648999  85.0293585
 164.1838333 191.9918719  83.9133785 164.6520542 181.3009619  90.0821353
 163.1096585 182.1815741  89.8917896 164.0626181 184.1020562  91.1891875
 165.5978946 183.2407973  91.3412741 164.3597371 181.4480534  92.6330741
 162.8794861 182.4060040  92.4725076 164.0395385 184.3593520  93.5504737
 165.4985863 183.3854758  93.7301921 164.2476746 181.7888178  95.2008960
 162.7929449 182.7811222  95.0248867 164.0191845 184.7502743  95.9796315
 165.4694190 183.7628191  96.1551142 164.2387463 182.2271405  97.7031609
 162.7870939 183.2163802  97.5296289 165.4673060 184.1916533  98.6561465
 164.0189238 183.7982630  99.6002081 164.0027895 185.1804462  98.4895654
 164.5790187 182.5022503  86.5713470 163.0809227 182.2232412  87.4709758
 165.5577693 180.4389571  87.0752213 164.0320396 180.2329919  86.4628611
 164.6910450 179.8437473  89.4408266 164.4287210 178.6281249  88.2574306
 162.2435027 180.6894618  88.9259114 162.3868803 179.1206479  89.7024419
 162.2733367 177.9711193  87.5347990 162.2629557 179.4947440  86.6627341
 160.1102828 180.1370481  87.6013643 160.0314417 178.6079961  88.4937257
 160.3261578 177.3596438  86.3103392 160.3717045 178.8921868  85.4447974
 158.0128941 177.8901213  87.1065216 158.1321443 177.8560585  85.3345859
 158.0651053 179.4123538  86.1873582 172.5970000 175.6220000  80.9750000
 162.1820000 187.5860000  90.2720000 168.4498435 190.0892258  91.2108018
 166.9206208 190.0983423  91.2108476 166.3559748 188.6763454  91.2099514
 164.8277844 188.6829019  91.2093803 164.2562430 187.2830000  91.2090000
 162.9020000 187.2830000  91.2090000 164.9064269 186.2507992  91.2084242
 161.9950000 188.1870000  88.4140000 161.6239627 188.1866082  89.5474083
 161.6209482 187.5706945  91.2114991 168.8190424 189.5548952  92.0942020
 168.8197372 189.5539623  90.3292715 166.5572267 190.6379011  90.3284328
 166.5561634 190.6379044  92.0933625 166.7221151 188.1324740  92.0889224
 166.7220361 188.1339952  90.3287225 164.4605586 189.2013983  90.3171832
 164.4607875 189.2008719  92.1026810 162.5097631 188.1763881  91.2090000
 171.1280000 178.4210000 104.5160000 172.5777774 185.5222005 105.9421438
 171.0686515 185.4367848 105.8552115 170.5089757 184.5336163 106.9462000
 169.0102477 184.4780210 106.7793451 168.3911405 183.6112373 107.8523042
 166.8848159 183.7431808 107.7777451 166.2670844 182.9420000 106.6290000
 164.7210000 182.9420000 106.6290000 164.1136962 184.3687263 106.6290000
 164.6115752 185.2952788 105.5164628 164.0568467 186.7087891 105.7390727
 164.5643630 187.6722987 104.6710697 164.0124345 189.0834171 104.8918251
 164.5209850 190.0236350 103.7966482 163.9742930 191.4387717 103.9737523
 164.4868685 192.3561607 102.8758112 164.1975855 182.2921111 107.9760708
 164.5164433 183.1100878 109.2204143 163.9743105 182.4704234 110.4948002
 164.4023195 183.3343543 111.6749314 163.8860424 182.8130436 113.0095243
 164.3739724 183.7268103 114.1332741 163.8845094 183.2480682 115.4904483
 164.3723657 184.1590515 116.6043876 164.1661881 182.0713906 105.4626574
 164.5197005 180.5855280 105.3524780 164.1259989 179.6508091 106.5009994
 162.6179551 179.6661187 106.7559279 161.9434240 179.0162166 105.5654070
 160.4350011 179.0869084 105.5740254 159.9548935 178.3913068 104.3025470
 158.4468128 178.3880083 104.2104067 170.6660000 178.6890000 103.5610000
 170.5890455 178.3183397 103.5686543 170.5065611 177.9864972 105.3085043
 172.8729754 185.9236320 106.9178291 173.0131727 184.5202427 105.8524485
 170.7659720 185.0496836 104.8750912 170.6268237 186.4364455 105.9548742
 170.7722239 184.9268512 107.9332884 170.9374698 183.5247144 106.8669043
 168.7533187 184.0927845 105.7925598 168.5968951 185.4960287 106.8503450
 168.7252658 183.9492563 108.8385970 168.7053866 182.5657500 107.7485358
 166.5957068 184.7989578 107.7325596 166.5726052 183.4013389 108.7448530
 166.5873425 181.8989625 106.6783618 166.5813881 183.3444737 105.6612644
 164.3602357 184.8376140 107.5714736 163.0253203 184.2546983 106.5752458
 164.2910002 184.9427926 104.5304638 165.7047742 185.3515952 105.5079588
 164.3609731 187.0685757 106.7301851 162.9605120 186.6792478 105.7266421
 164.2699548 187.3107877 103.6812164 165.6605354 187.7027619 104.6955471
 164.3180479 189.4521915 105.8655017 162.9157292 189.0587877 104.8762742
 164.2245892 189.6368654 102.8153420 165.6170986 190.0482493 103.8183350
 164.2747766 191.8377647 104.9497785 162.8790217 191.4223078 103.9503739
 165.5799208 192.4194951 102.8963196 164.0840697 193.3648999 103.0043585
 164.1838333 191.9918719 101.8883785 164.6520542 181.3009619 108.0571353
 163.1096585 182.1815741 107.8667896 164.0626181 184.1020562 109.1641875
 165.5978946 183.2407973 109.3162741 164.3597371 181.4480534 110.6080741
 162.8794861 182.4060040 110.4475076 164.0395385 184.3593520 111.5254737
 165.4985863 183.3854758 111.7051921 164.2476746 181.7888178 113.1758960
 162.7929449 182.7811222 112.9998867 164.0191845 184.7502743 113.9546315
 165.4694190 183.7628191 114.1301142 164.2387463 182.2271405 115.6781609
 162.7870939 183.2163802 115.5046289 165.4673060 184.1916533 116.6311465
 164.0189238 183.7982630 117.5752081 164.0027895 185.1804462 116.4645654
 164.5790187 182.5022503 104.5463470 163.0809227 182.2232412 105.4459758
 165.5577693 180.4389571 105.0502213 164.0320396 180.2329919 104.4378611
 164.6910450 179.8437473 107.4158266 164.4287210 178.6281249 106.2324306
 162.2435027 180.6894618 106.9009114 162.3868803 179.1206479 107.6774419
 162.2733367 177.9711193 105.5097990 162.2629557 179.4947440 104.6377341
 160.1102828 180.1370481 105.5763643 160.0314417 178.6079961 106.4687257
 160.3261578 177.3596438 104.2853392 160.3717045 178.8921868 103.4197974
 158.0128941 177.8901213 105.0815216 158.1321443 177.8560585 103.3095859
 158.0651053 179.4123538 104.1623582 172.5970000 175.6220000  98.9500000
 162.1820000 187.5860000 108.2470000 168.4498435 190.0892258 109.1858018
 166.9206208 190.0983423 109.1858476 166.3559748 188.6763454 109.1849514
 164.8277844 188.6829019 109.1843803 164.2562430 187.2830000 109.1840000
 162.9020000 187.2830000 109.1840000 164.9064269 186.2507992 109.1834242
 161.9950000 188.1870000 106.3890000 161.6239627 188.1866082 107.5224083
 161.6209482 187.5706945 109.1864991 168.8190424 189.5548952 110.0692020
 168.8197372 189.5539623 108.3042715 166.5572267 190.6379011 108.3034328
 166.5561634 190.6379044 110.0683625 166.7221151 188.1324740 110.0639224
 166.7220361 188.1339952 108.3037225 164.4605586 189.2013983 108.2921832
 164.4607875 189.2008719 110.0776810 162.5097631 188.1763881 109.1840000
 171.1280000 178.4210000 122.4900000 172.5777774 185.5222005 123.9161438
 171.0686515 185.4367848 123.8292115 170.5089757 184.5336163 124.9202000
 169.0102477 184.4780210 124.7533451 168.3911405 183.6112373 125.8263042
 166.8848159 183.7431808 125.7517451 166.2670844 182.9420000 124.6030000
 164.7210000 182.9420000 124.6030000 164.1136962 184.3687263 124.6030000
 164.6115752 185.2952788 123.4904628 164.0568467 186.7087891 123.7130727
 164.5643630 187.6722987 122.6450697 164.0124345 189.0834171 122.8658251
 164.5209850 190.0236350 121.7706482 163.9742930 191.4387717 121.9477523
 164.4868685 192.3561607 120.8498112 164.1975855 182.2921111 125.9500708
 164.5164433 183.1100878 127.1944143 163.9743105 182.4704234 128.4688002
 164.4023195 183.3343543 129.6489314 163.8860424 182.8130436 130.9835243
 164.3739724 183.7268103 132.1072741 163.8845094 183.2480682 133.4644483
 164.3723657 184.1590515 134.5783876 164.1661881 182.0713906 123.4366574
 164.5197005 180.5855280 123.3264780 164.1259989 179.6508091 124.4749994
 162.6179551 179.6661187 124.7299279 161.9434240 179.0162166 123.5394070
 160.4350011 179.0869084 123.5480254 159.9548935 178.3913068 122.2765470
 158.4468128 178.3880083 122.1844067 170.6660000 178.6890000 121.5350000
 170.5890455 178.3183397 121.5426543 170.5065611 177.9864972 123.2825043
 172.8729754 185.9236320 124.8918291 173.0131727 184.5202427 123.8264485
 170.7659720 185.0496836 122.8490912 170.6268237 186.4364455 123.9288742
 170.7722239 184.9268512 125.9072884 170.9374698 183.5247144 124.8409043
 168.7533187 184.0927845 123.7665598 168.5968951 185.4960287 124.8243450
 168.7252658 183.9492563 126.8125970 168.7053866 182.5657500 125.7225358
 166.5957068 184.7989578 125.7065596 166.5726052 183.4013389 126.7188530
 166.5873425 181.8989625 124.6523618 166.5813881 183.3444737 123.6352644
 164.3602357 184.8376140 125.5454736 163.0253203 184.2546983 124.5492458
 164.2910002 184.9427926 122.5044638 165.7047742 185.3515952 123.4819588
 164.3609731 187.0685757 124.7041851 162.9605120 186.6792478 123.7006421
 164.2699548 187.3107877 121.6552164 165.6605354 187.7027619 122.6695471
 164.3180479 189.4521915 123.8395017 162.9157292 189.0587877 122.8502742
 164.2245892 189.6368654 120.7893420 165.6170986 190.0482493 121.7923350
 164.2747766 191.8377647 122.9237785 162.8790217 191.4223078 121.9243739
 165.5799208 192.4194951 120.8703196 164.0840697 193.3648999 120.9783585
 164.1838333 191.9918719 119.8623785 164.6520542 181.3009619 126.0311353
 163.1096585 182.1815741 125.8407896 164.0626181 184.1020562 127.1381875
 165.5978946 183.2407973 127.2902741 164.3597371 181.4480534 128.5820741
 162.8794861 182.4060040 128.4215076 164.0395385 184.3593520 129.4994737
 165.4985863 183.3854758 129.6791921 164.2476746 181.7888178 131.1498960
 162.7929449 182.7811222 130.9738867 164.0191845 184.7502743 131.9286315
 165.4694190 183.7628191 132.1041142 164.2387463 182.2271405 133.6521609
 162.7870939 183.2163802 133.4786289 165.4673060 184.1916533 134.6051465
 164.0189238 183.7982630 135.5492081 164.0027895 185.1804462 134.4385654
 164.5790187 182.5022503 122.5203470 163.0809227 182.2232412 123.4199758
 165.5577693 180.4389571 123.0242213 164.0320396 180.2329919 122.4118611
 164.6910450 179.8437473 125.3898266 164.4287210 178.6281249 124.2064306
 162.2435027 180.6894618 124.8749114 162.3868803 179.1206479 125.6514419
 162.2733367 177.9711193 123.4837990 162.2629557 179.4947440 122.6117341
 160.1102828 180.1370481 123.5503643 160.0314417 178.6079961 124.4427257
 160.3261578 177.3596438 122.2593392 160.3717045 178.8921868 121.3937974
 158.0128941 177.8901213 123.0555216 158.1321443 177.8560585 121.2835859
 158.0651053 179.4123538 122.1363582 172.5970000 175.6220000 116.9240000
 162.1820000 187.5860000 126.2210000 168.4498435 190.0892258 127.1598018
 166.9206208 190.0983423 127.1598476 166.3559748 188.6763454 127.1589514
 164.8277844 188.6829019 127.1583803 164.2562430 187.2830000 127.1580000
 162.9020000 187.2830000 127.1580000 164.9064269 186.2507992 127.1574242
 161.9950000 188.1870000 124.3630000 161.6239627 188.1866082 125.4964083
 161.6209482 187.5706945 127.1604991 168.8190424 189.5548952 128.0432020
 168.8197372 189.5539623 126.2782715 166.5572267 190.6379011 126.2774328
 166.5561634 190.6379044 128.0423625 166.7221151 188.1324740 128.0379224
 166.7220361 188.1339952 126.2777225 164.4605586 189.2013983 126.2661832
 164.4607875 189.2008719 128.0516810 162.5097631 188.1763881 127.1580000
 171.1280000 178.4210000 140.4650000 172.5777774 185.5222005 141.8911438
 171.0686515 185.4367848 141.8042115 170.5089757 184.5336163 142.8952000
 169.0102477 184.4780210 142.7283451 168.3911405 183.6112373 143.8013042
 166.8848159 183.7431808 143.7267451 166.2670844 182.9420000 142.5780000
 164.7210000 182.9420000 142.5780000 164.1136962 184.3687263 142.5780000
 164.6115752 185.2952788 141.4654628 164.0568467 186.7087891 141.6880727
 164.5643630 187.6722987 140.6200697 164.0124345 189.0834171 140.8408251
 164.5209850 190.0236350 139.7456482 163.9742930 191.4387717 139.9227523
 164.4868685 192.3561607 138.8248112 164.1975855 182.2921111 143.9250708
 164.5164433 183.1100878 145.1694143 163.9743105 182.4704234 146.4438002
 164.4023195 183.3343543 147.6239314 163.8860424 182.8130436 148.9585243
 164.3739724 183.7268103 150.0822741 163.8845094 183.2480682 151.4394483
 164.3723657 184.1590515 152.5533876 164.1661881 182.0713906 141.4116574
 164.5197005 180.5855280 141.3014780 164.1259989 179.6508091 142.4499994
 162.6179551 179.6661187 142.7049279 161.9434240 179.0162166 141.5144070
 160.4350011 179.0869084 141.5230254 159.9548935 178.3913068 140.2515470
 158.4468128 178.3880083 140.1594067 170.6660000 178.6890000 139.5100000
 170.5890455 178.3183397 139.5176543 170.5065611 177.9864972 141.2575043
 172.8729754 185.9236320 142.8668291 173.0131727 184.5202427 141.8014485
 170.7659720 185.0496836 140.8240912 170.6268237 186.4364455 141.9038742
 170.7722239 184.9268512 143.8822884 170.9374698 183.5247144 142.8159043
 168.7533187 184.0927845 141.7415598 168.5968951 185.4960287 142.7993450
 168.7252658 183.9492563 144.7875970 168.7053866 182.5657500 143.6975358
 166.5957068 184.7989578 143.6815596 166.5726052 183.4013389 144.6938530
 166.5873425 181.8989625 142.6273618 166.5813881 183.3444737 141.6102644
 164.3602357 184.8376140 143.5204736 163.0253203 184.2546983 142.5242458
 164.2910002 184.9427926 140.4794638 165.7047742 185.3515952 141.4569588
 164.3609731 187.0685757 142.6791851 162.9605120 186.6792478 141.6756421
 164.2699548 187.3107877 139.6302164 165.6605354 187.7027619 140.6445471
 164.3180479 189.4521915 141.8145017 162.9157292 189.0587877 140.8252742
 164.2245892 189.6368654 138.7643420 165.6170986 190.0482493 139.7673350
 164.2747766 191.8377647 140.8987785 162.8790217 191.4223078 139.8993739
 165.5799208 192.4194951 138.8453196 164.0840697 193.3648999 138.9533585
 164.1838333 191.9918719 137.8373785 164.6520542 181.3009619 144.0061353
 163.1096585 182.1815741 143.8157896 164.0626181 184.1020562 145.1131875
 165.5978946 183.2407973 145.2652741 164.3597371 181.4480534 146.5570741
 162.8794861 182.4060040 146.3965076 164.0395385 184.3593520 147.4744737
 165.4985863 183.3854758 147.6541921 164.2476746 181.7888178 149.1248960
 162.7929449 182.7811222 148.9488867 164.0191845 184.7502743 149.9036315
 165.4694190 183.7628191 150.0791142 164.2387463 182.2271405 151.6271609
 162.7870939 183.2163802 151.4536289 165.4673060 184.1916533 152.5801465
 164.0189238 183.7982630 153.5242081 164.0027895 185.1804462 152.4135654
 164.5790187 182.5022503 140.4953470 163.0809227 182.2232412 141.3949758
 165.5577693 180.4389571 140.9992213 164.0320396 180.2329919 140.3868611
 164.6910450 179.8437473 143.3648266 164.4287210 178.6281249 142.1814306
 162.2435027 180.6894618 142.8499114 162.3868803 179.1206479 143.6264419
 162.2733367 177.9711193 141.4587990 162.2629557 179.4947440 140.5867341
 160.1102828 180.1370481 141.5253643 160.0314417 178.6079961 142.4177257
 160.3261578 177.3596438 140.2343392 160.3717045 178.8921868 139.3687974
 158.0128941 177.8901213 141.0305216 158.1321443 177.8560585 139.2585859
 158.0651053 179.4123538 140.1113582 172.5970000 175.6220000 134.8990000
 162.1820000 187.5860000 144.1960000 168.4498435 190.0892258 145.1348018
 166.9206208 190.0983423 145.1348476 166.3559748 188.6763454 145.1339514
 164.8277844 188.6829019 145.1333803 164.2562430 187.2830000 145.1330000
 162.9020000 187.2830000 145.1330000 164.9064269 186.2507992 145.1324242
 161.9950000 188.1870000 142.3380000 161.6239627 188.1866082 143.4714083
 161.6209482 187.5706945 145.1354991 168.8190424 189.5548952 146.0182020
 168.8197372 189.5539623 144.2532715 166.5572267 190.6379011 144.2524328
 166.5561634 190.6379044 146.0173625 166.7221151 188.1324740 146.0129224
 166.7220361 188.1339952 144.2527225 164.4605586 189.2013983 144.2411832
 164.4607875 189.2008719 146.0266810 162.5097631 188.1763881 145.1330000
 171.1280000 178.4210000 158.4400000 172.5777774 185.5222005 159.8661438
 171.0686515 185.4367848 159.7792115 170.5089757 184.5336163 160.8702000
 169.0102477 184.4780210 160.7033451 168.3911405 183.6112373 161.7763042
 166.8848159 183.7431808 161.7017451 166.2670844 182.9420000 160.5530000
 164.7210000 182.9420000 160.5530000 164.1136962 184.3687263 160.5530000
 164.6115752 185.2952788 159.4404628 164.0568467 186.7087891 159.6630727
 164.5643630 187.6722987 158.5950697 164.0124345 189.0834171 158.8158251
 164.5209850 190.0236350 157.7206482 163.9742930 191.4387717 157.8977523
 164.4868685 192.3561607 156.7998112 164.1975855 182.2921111 161.9000708
 164.5164433 183.1100878 163.1444143 163.9743105 182.4704234 164.4188002
 164.4023195 183.3343543 165.5989314 163.8860424 182.8130436 166.9335243
 164.3739724 183.7268103 168.0572741 163.8845094 183.2480682 169.4144483
 164.3723657 184.1590515 170.5283876 164.1661881 182.0713906 159.3866574
 164.5197005 180.5855280 159.2764780 164.1259989 179.6508091 160.4249994
 162.6179551 179.6661187 160.6799279 161.9434240 179.0162166 159.4894070
 160.4350011 179.0869084 159.4980254 159.9548935 178.3913068 158.2265470
 158.4468128 178.3880083 158.1344067 170.6660000 178.6890000 157.4850000
 170.5890455 178.3183397 157.4926543 170.5065611 177.9864972 159.2325043
 172.8729754 185.9236320 160.8418291 173.0131727 184.5202427 159.7764485
 170.7659720 185.0496836 158.7990912 170.6268237 186.4364455 159.8788742
 170.7722239 184.9268512 161.8572884 170.9374698 183.5247144 160.7909043
 168.7533187 184.0927845 159.7165598 168.5968951 185.4960287 160.7743450
 168.7252658 183.9492563 162.7625970 168.7053866 182.5657500 161.6725358
 166.5957068 184.7989578 161.6565596 166.5726052 183.4013389 162.6688530
 166.5873425 181.8989625 160.6023618 166.5813881 183.3444737 159.5852644
 164.3602357 184.8376140 161.4954736 163.0253203 184.2546983 160.4992458
 164.2910002 184.9427926 158.4544638 165.7047742 185.3515952 159.4319588
 164.3609731 187.0685757 160.6541851 162.9605120 186.6792478 159.6506421
 164.2699548 187.3107877 157.6052164 165.6605354 187.7027619 158.6195471
 164.3180479 189.4521915 159.7895017 162.9157292 189.0587877 158.8002742
 164.2245892 189.6368654 156.7393420 165.6170986 190.0482493 157.7423350
 164.2747766 191.8377647 158.8737785 162.8790217 191.4223078 157.8743739
 165.5799208 192.4194951 156.8203196 164.0840697 193.3648999 156.9283585
 164.1838333 191.9918719 155.8123785 164.6520542 181.3009619 161.9811353
 163.1096585 182.1815741 161.7907896 164.0626181 184.1020562 163.0881875
 165.5978946 183.2407973 163.2402741 164.3597371 181.4480534 164.5320741
 162.8794861 182.4060040 164.3715076 164.0395385 184.3593520 165.4494737
 165.4985863 183.3854758 165.6291921 164.2476746 181.7888178 167.0998960
 162.7929449 182.7811222 166.9238867 164.0191845 184.7502743 167.8786315
 165.4694190 183.7628191 168.0541142 164.2387463 182.2271405 169.6021609
 162.7870939 183.2163802 169.4286289 165.4673060 184.1916533 170.5551465
 164.0189238 183.7982630 171.4992081 164.0027895 185.1804462 170.3885654
 164.5790187 182.5022503 158.4703470 163.0809227 182.2232412 159.3699758
 165.5577693 180.4389571 158.9742213 164.0320396 180.2329919 158.3618611
 164.6910450 179.8437473 161.3398266 164.4287210 178.6281249 160.1564306
 162.2435027 180.6894618 160.8249114 162.3868803 179.1206479 161.6014419
 162.2733367 177.9711193 159.4337990 162.2629557 179.4947440 158.5617341
 160.1102828 180.1370481 159.5003643 160.0314417 178.6079961 160.3927257
 160.3261578 177.3596438 158.2093392 160.3717045 178.8921868 157.3437974
 158.0128941 177.8901213 159.0055216 158.1321443 177.8560585 157.2335859
 158.0651053 179.4123538 158.0863582 172.5970000 175.6220000 152.8740000
 162.1820000 187.5860000 162.1710000 168.4498435 190.0892258 163.1098018
 166.9206208 190.0983423 163.1098476 166.3559748 188.6763454 163.1089514
 164.8277844 188.6829019 163.1083803 164.2562430 187.2830000 163.1080000
 162.9020000 187.2830000 163.1080000 164.9064269 186.2507992 163.1074242
 161.9950000 188.1870000 160.3130000 161.6239627 188.1866082 161.4464083
 161.6209482 187.5706945 163.1104991 168.8190424 189.5548952 163.9932020
 168.8197372 189.5539623 162.2282715 166.5572267 190.6379011 162.2274328
 166.5561634 190.6379044 163.9923625 166.7221151 188.1324740 163.9879224
 166.7220361 188.1339952 162.2277225 164.4605586 189.2013983 162.2161832
 164.4607875 189.2008719 164.0016810 162.5097631 188.1763881 163.1080000
 171.1280000 178.4210000 176.4150000 172.5777774 185.5222005 177.8411438
 171.0686515 185.4367848 177.7542115 170.5089757 184.5336163 178.8452000
 169.0102477 184.4780210 178.6783451 168.3911405 183.6112373 179.7513042
 166.8848159 183.7431808 179.6767451 166.2670844 182.9420000 178.5280000
 164.7210000 182.9420000 178.5280000 164.1136962 184.3687263 178.5280000
 164.6115752 185.2952788 177.4154628 164.0568467 186.7087891 177.6380727
 164.5643630 187.6722987 176.5700697 164.0124345 189.0834171 176.7908251
 164.5209850 190.0236350 175.6956482 163.9742930 191.4387717 175.8727523
 164.4868685 192.3561607 174.7748112 164.1975855 182.2921111 179.8750708
 164.5164433 183.1100878 181.1194143 163.9743105 182.4704234 182.3938002
 164.4023195 183.3343543 183.5739314 163.8860424 182.8130436 184.9085243
 164.3739724 183.7268103 186.0322741 163.8845094 183.2480682 187.3894483
 164.3723657 184.1590515 188.5033876 164.1661881 182.0713906 177.3616574
 164.5197005 180.5855280 177.2514780 164.1259989 179.6508091 178.3999994
 162.6179551 179.6661187 178.6549279 161.9434240 179.0162166 177.4644070
 160.4350011 179.0869084 177.4730254 159.9548935 178.3913068 176.2015470
 158.4468128 178.3880083 176.1094067 170.6660000 178.6890000 175.4600000
 170.5890455 178.3183397 175.4676543 170.5065611 177.9864972 177.2075043
 172.8729754 185.9236320 178.8168291 173.0131727 184.5202427 177.7514485
 170.7659720 185.0496836 176.7740912 170.6268237 186.4364455 177.8538742
 170.7722239 184.9268512 179.8322884 170.9374698 183.5247144 178.7659043
 168.7533187 184.0927845 177.6915598 168.5968951 185.4960287 178.7493450
 168.7252658 183.9492563 180.7375970 168.7053866 182.5657500 179.6475358
 166.5957068 184.7989578 179.6315596 166.5726052 183.4013389 180.6438530
 166.5873425 181.8989625 178.5773618 166.5813881 183.3444737 177.5602644
 164.3602357 184.8376140 179.4704736 163.0253203 184.2546983 178.4742458
 164.2910002 184.9427926 176.4294638 165.7047742 185.3515952 177.4069588
 164.3609731 187.0685757 178.6291851 162.9605120 186.6792478 177.6256421
 164.2699548 187.3107877 175.5802164 165.6605354 187.7027619 176.5945471
 164.3180479 189.4521915 177.7645017 162.9157292 189.0587877 176.7752742
 164.2245892 189.6368654 174.7143420 165.6170986 190.0482493 175.7173350
 164.2747766 191.8377647 176.8487785 162.8790217 191.4223078 175.8493739
 165.5799208 192.4194951 174.7953196 164.0840697 193.3648999 174.9033585
 164.1838333 191.9918719 173.7873785 164.6520542 181.3009619 179.9561353
 163.1096585 182.1815741 179.7657896 164.0626181 184.1020562 181.0631875
 165.5978946 183.2407973 181.2152741 164.3597371 181.4480534 182.5070741
 162.8794861 182.4060040 182.3465076 164.0395385 184.3593520 183.4244737
 165.4985863 183.3854758 183.6041921 164.2476746 181.7888178 185.0748960
 162.7929449 182.7811222 184.8988867 164.0191845 184.7502743 185.8536315
 165.4694190 183.7628191 186.0291142 164.2387463 182.2271405 187.5771609
 162.7870939 183.2163802 187.4036289 165.4673060 184.1916533 188.5301465
 164.0189238 183.7982630 189.4742081 164.0027895 185.1804462 188.3635654
 164.5790187 182.5022503 176.4453470 163.0809227 182.2232412 177.3449758
 165.5577693 180.4389571 176.9492213 164.0320396 180.2329919 176.3368611
 164.6910450 179.8437473 179.3148266 164.4287210 178.6281249 178.1314306
 162.2435027 180.6894618 178.7999114 162.3868803 179.1206479 179.5764419
 162.2733367 177.9711193 177.4087990 162.2629557 179.4947440 176.5367341
 160.1102828 180.1370481 177.4753643 160.0314417 178.6079961 178.3677257
 160.3261578 177.3596438 176.1843392 160.3717045 178.8921868 175.3187974
 158.0128941 177.8901213 176.9805216 158.1321443 177.8560585 175.2085859
 158.0651053 179.4123538 176.0613582 172.5970000 175.6220000 170.8490000
 162.1820000 187.5860000 180.1460000 168.4498435 190.0892258 181.0848018
 166.9206208 190.0983423 181.0848476 166.3559748 188.6763454 181.0839514
 164.8277844 188.6829019 181.0833803 164.2562430 187.2830000 181.0830000
 162.9020000 187.2830000 181.0830000 164.9064269 186.2507992 181.0824242
 161.9950000 188.1870000 178.2880000 161.6239627 188.1866082 179.4214083
 161.6209482 187.5706945 181.0854991 168.8190424 189.5548952 181.9682020
 168.8197372 189.5539623 180.2032715 166.5572267 190.6379011 180.2024328
 166.5561634 190.6379044 181.9673625 166.7221151 188.1324740 181.9629224
 166.7220361 188.1339952 180.2027225 164.4605586 189.2013983 180.1911832
 164.4607875 189.2008719 181.9766810 162.5097631 188.1763881 181.0830000
 191.2770000  66.7990000  68.5660000 192.7267774  73.9002005  69.9921438
 191.2176515  73.8147848  69.9052115 190.6579757  72.9116163  70.9962000
 189.1592477  72.8560210  70.8293451 188.5401405  71.9892373  71.9023042
 187.0338159  72.1211808  71.8277451 186.4160844  71.3200000  70.6790000
 184.8700000  71.3200000  70.6790000 184.2626962  72.7467263  70.6790000
 184.7605752  73.6732788  69.5664628 184.2058467  75.0867891  69.7890727
 184.7133630  76.0502987  68.7210697 184.1614345  77.4614171  68.9418251
 184.6699850  78.4016350  67.8466482 184.1232930  79.8167717  68.0237523
 184.6358685  80.7341607  66.9258112 184.3465855  70.6701111  72.0260708
 184.6654433  71.4880878  73.2704143 184.1233105  70.8484234  74.5448002
 184.5513195  71.7123543  75.7249314 184.0350424  71.1910436  77.0595243
 184.5229724  72.1048103  78.1832741 184.0335094  71.6260682  79.5404483
 184.5213657  72.5370515  80.6543876 184.3151881  70.4493906  69.5126574
 184.6687005  68.9635280  69.4024780 184.2749989  68.0288091  70.5509994
 182.7669551  68.0441187  70.8059279 182.0924240  67.3942166  69.6154070
 180.5840011  67.4649084  69.6240254 180.1038935  66.7693068  68.3525470
 178.5958128  66.7660083  68.2604067 190.8150000  67.0670000  67.6110000
 190.7380455  66.6963397  67.6186543 190.6555611  66.3644972  69.3585043
 193.0219754  74.3016320  70.9678291 193.1621727  72.8982427  69.9024485
 190.9149720  73.4276836  68.9250912 190.7758237  74.8144455  70.0048742
 190.9212239  73.3048512  71.9832884 191.0864698  71.9027144  70.9169043
 188.9023187  72.4707845  69.8425598 188.7458951  73.8740287  70.9003450
 188.8742658  72.3272563  72.8885970 188.8543866  70.9437500  71.7985358
 186.7447068  73.1769578  71.7825596 186.7216052  71.7793389  72.7948530
 186.7363425  70.2769625  70.7283618 186.7303881  71.7224737  69.7112644
 184.5092357  73.2156140  71.6214736 183.1743203  72.6326983  70.6252458
 184.4400002  73.3207926  68.5804638 185.8537742  73.7295952  69.5579588
 184.5099731  75.4465757  70.7801851 183.1095120  75.0572478  69.7766421
 184.4189548  75.6887877  67.7312164 185.8095354  76.0807619  68.7455471
 184.4670479  77.8301915  69.9155017 183.0647292  77.4367877  68.9262742
 184.3735892  78.0148654  66.8653420 185.7660986  78.4262493  67.8683350
 184.4237766  80.2157647  68.9997785 183.0280217  79.8003078  68.0003739
 185.7289208  80.7974951  66.9463196 184.2330697  81.7428999  67.0543585
 184.3328333  80.3698719  65.9383785 184.8010542  69.6789619  72.1071353
 183.2586585  70.5595741  71.9167896 184.2116181  72.4800562  73.2141875
 185.7468946  71.6187973  73.3662741 184.5087371  69.8260534  74.6580741
 183.0284861  70.7840040  74.4975076 184.1885385  72.7373520  75.5754737
 185.6475863  71.7634758  75.7551921 184.3966746  70.1668178  77.2258960
 182.9419449  71.1591222  77.0498867 184.1681845  73.1282743  78.0046315
 185.6184190  72.1408191  78.1801142 184.3877463  70.6051405  79.7281609
 182.9360939  71.5943802  79.5546289 185.6163060  72.5696533  80.6811465
 184.1679238  72.1762630  81.6252081 184.1517895  73.5584462  80.5145654
 184.7280187  70.8802503  68.5963470 183.2299227  70.6012412  69.4959758
 185.7067693  68.8169571  69.1002213 184.1810396  68.6109919  68.4878611
 184.8400450  68.2217473  71.4658266 184.5777210  67.0061249  70.2824306
 182.3925027  69.0674618  70.9509114 182.5358803  67.4986479  71.7274419
 182.4223367  66.3491193  69.5597990 182.4119557  67.8727440  68.6877341
 180.2592828  68.5150481  69.6263643 180.1804417  66.9859961  70.5187257
 180.4751578  65.7376438  68.3353392 180.5207045  67.2701868  67.4697974
 178.1618941  66.2681213  69.1315216 178.2811443  66.2340585  67.3595859
 178.2141053  67.7903538  68.2123582 192.7460000  64.0000000  63.0000000
 182.3310000  75.9640000  72.2970000 188.5988435  78.4672258  73.2358018
 187.0696208  78.4763423  73.2358476 186.5049748  77.0543454  73.2349514
 184.9767844  77.0609019  73.2343803 184.4052430  75.6610000  73.2340000
 183.0510000  75.6610000  73.2340000 185.0554269  74.6287992  73.2334242
 182.1440000  76.5650000  70.4390000 181.7729627  76.5646082  71.5724083
 181.7699482  75.9486945  73.2364991 188.9680424  77.9328952  74.1192020
 188.9687372  77.9319623  72.3542715 186.7062267  79.0159011  72.3534328
 186.7051634  79.0159044  74.1183625 186.8711151  76.5104740  74.1139224
 186.8710361  76.5119952  72.3537225 184.6095586  77.5793983  72.3421832
 184.6097875  77.5788719  74.1276810 182.6587631  76.5543881  73.2340000
 191.2770000  66.7990000  86.5410000 192.7267774  73.9002005  87.9671438
 191.2176515  73.8147848  87.8802115 190.6579757  72.9116163  88.9712000
 189.1592477  72.8560210  88.8043451 188.5401405  71.9892373  89.8773042
 187.0338159  72.1211808  89.8027451 186.4160844  71.3200000  88.6540000
 184.8700000  71.3200000  88.6540000 184.2626962  72.7467263  88.6540000
 184.7605752  73.6732788  87.5414628 184.2058467  75.0867891  87.7640727
 184.7133630  76.0502987  86.6960697 184.1614345  77.4614171  86.9168251
 184.6699850  78.4016350  85.8216482 184.1232930  79.8167717  85.9987523
 184.6358685  80.7341607  84.9008112 184.3465855  70.6701111  90.0010708
 184.6654433  71.4880878  91.2454143 184.1233105  70.8484234  92.5198002
 184.5513195  71.7123543  93.6999314 184.0350424  71.1910436  95.0345243
 184.5229724  72.1048103  96.1582741 184.0335094  71.6260682  97.5154483
 184.5213657  72.5370515  98.6293876 184.3151881  70.4493906  87.4876574
 184.6687005  68.9635280  87.3774780 184.2749989  68.0288091  88.5259994
 182.7669551  68.0441187  88.7809279 182.0924240  67.3942166  87.5904070
 180.5840011  67.4649084  87.5990254 180.1038935  66.7693068  86.3275470
 178.5958128  66.7660083  86.2354067 190.8150000  67.0670000  85.5860000
 190.7380455  66.6963397  85.5936543 190.6555611  66.3644972  87.3335043
 193.0219754  74.3016320  88.9428291 193.1621727  72.8982427  87.8774485
 190.9149720  73.4276836  86.9000912 190.7758237  74.8144455  87.9798742
 190.9212239  73.3048512  89.9582884 191.0864698  71.9027144  88.8919043
 188.9023187  72.4707845  87.8175598 188.7458951  73.8740287  88.8753450
 188.8742658  72.3272563  90.8635970 188.8543866  70.9437500  89.7735358
 186.7447068  73.1769578  89.7575596 186.7216052  71.7793389  90.7698530
 186.7363425  70.2769625  88.7033618 186.7303881  71.7224737  87.6862644
 184.5092357  73.2156140  89.5964736 183.1743203  72.6326983  88.6002458
 184.4400002  73.3207926  86.5554638 185.8537742  73.7295952  87.5329588
 184.5099731  75.4465757  88.7551851 183.1095120  75.0572478  87.7516421
 184.4189548  75.6887877  85.7062164 185.8095354  76.0807619  86.7205471
 184.4670479  77.8301915  87.8905017 183.0647292  77.4367877  86.9012742
 184.3735892  78.0148654  84.8403420 185.7660986  78.4262493  85.8433350
 184.4237766  80.2157647  86.9747785 183.0280217  79.8003078  85.9753739
 185.7289208  80.7974951  84.9213196 184.2330697  81.7428999  85.0293585
 184.3328333  80.3698719  83.9133785 184.8010542  69.6789619  90.0821353
 183.2586585  70.5595741  89.8917896 184.2116181  72.4800562  91.1891875
 185.7468946  71.6187973  91.3412741 184.5087371  69.8260534  92.6330741
 183.0284861  70.7840040  92.4725076 184.1885385  72.7373520  93.5504737
 185.6475863  71.7634758  93.7301921 184.3966746  70.1668178  95.2008960
 182.9419449  71.1591222  95.0248867 184.1681845  73.1282743  95.9796315
 185.6184190  72.1408191  96.1551142 184.3877463  70.6051405  97.7031609
 182.9360939  71.5943802  97.5296289 185.6163060  72.5696533  98.6561465
 184.1679238  72.1762630  99.6002081 184.1517895  73.5584462  98.4895654
 184.7280187  70.8802503  86.5713470 183.2299227  70.6012412  87.4709758
 185.7067693  68.8169571  87.0752213 184.1810396  68.6109919  86.4628611
 184.8400450  68.2217473  89.4408266 184.5777210  67.0061249  88.2574306
 182.3925027  69.0674618  88.9259114 182.5358803  67.4986479  89.7024419
 182.4223367  66.3491193  87.5347990 182.4119557  67.8727440  86.6627341
 180.2592828  68.5150481  87.6013643 180.1804417  66.9859961  88.4937257
 180.4751578  65.7376438  86.3103392 180.5207045  67.2701868  85.4447974
 178.1618941  66.2681213  87.1065216 178.2811443  66.2340585  85.3345859
 178.2141053  67.7903538  86.1873582 192.7460000  64.0000000  80.9750000
 182.3310000  75.9640000  90.2720000 188.5988435  78.4672258  91.2108018
 187.0696208  78.4763423  91.2108476 186.5049748  77.0543454  91.2099514
 184.9767844  77.0609019  91.2093803 184.4052430  75.6610000  91.2090000
 183.0510000  75.6610000  91.2090000 185.0554269  74.6287992  91.2084242
 182.1440000  76.5650000  88.4140000 181.7729627  76.5646082  89.5474083
 181.7699482  75.9486945  91.2114991 188.9680424  77.9328952  92.0942020
 188.9687372  77.9319623  90.3292715 186.7062267  79.0159011  90.3284328
 186.7051634  79.0159044  92.0933625 186.8711151  76.5104740  92.0889224
 186.8710361  76.5119952  90.3287225 184.6095586  77.5793983  90.3171832
 184.6097875  77.5788719  92.1026810 182.6587631  76.5543881  91.2090000
 191.2770000  66.7990000 104.5160000 192.7267774  73.9002005 105.9421438
 191.2176515  73.8147848 105.8552115 190.6579757  72.9116163 106.9462000
 189.1592477  72.8560210 106.7793451 188.5401405  71.9892373 107.8523042
 187.0338159  72.1211808 107.7777451 186.4160844  71.3200000 106.6290000
 184.8700000  71.3200000 106.6290000 184.2626962  72.7467263 106.6290000
 184.7605752  73.6732788 105.5164628 184.2058467  75.0867891 105.7390727
 184.7133630  76.0502987 104.6710697 184.1614345  77.4614171 104.8918251
 184.6699850  78.4016350 103.7966482 184.1232930  79.8167717 103.9737523
 184.6358685  80.7341607 102.8758112 184.3465855  70.6701111 107.9760708
 184.6654433  71.4880878 109.2204143 184.1233105  70.8484234 110.4948002
 184.5513195  71.7123543 111.6749314 184.0350424  71.1910436 113.0095243
 184.5229724  72.1048103 114.1332741 184.0335094  71.6260682 115.4904483
 184.5213657  72.5370515 116.6043876 184.3151881  70.4493906 105.4626574
 184.6687005  68.9635280 105.3524780 184.2749989  68.0288091 106.5009994
 182.7669551  68.0441187 106.7559279 182.0924240  67.3942166 105.5654070
 180.5840011  67.4649084 105.5740254 180.1038935  66.7693068 104.3025470
 178.5958128  66.7660083 104.2104067 190.8150000  67.0670000 103.5610000
 190.7380455  66.6963397 103.5686543 190.6555611  66.3644972 105.3085043
 193.0219754  74.3016320 106.9178291 193.1621727  72.8982427 105.8524485
 190.9149720  73.4276836 104.8750912 190.7758237  74.8144455 105.9548742
 190.9212239  73.3048512 107.9332884 191.0864698  71.9027144 106.8669043
 188.9023187  72.4707845 105.7925598 188.7458951  73.8740287 106.8503450
 188.8742658  72.3272563 108.8385970 188.8543866  70.9437500 107.7485358
 186.7447068  73.1769578 107.7325596 186.7216052  71.7793389 108.7448530
 186.7363425  70.2769625 106.6783618 186.7303881  71.7224737 105.6612644
 184.5092357  73.2156140 107.5714736 183.1743203  72.6326983 106.5752458
 184.4400002  73.3207926 104.5304638 185.8537742  73.7295952 105.5079588
 184.5099731  75.4465757 106.7301851 183.1095120  75.0572478 105.7266421
 184.4189548  75.6887877 103.6812164 185.8095354  76.0807619 104.6955471
 184.4670479  77.8301915 105.8655017 183.0647292  77.4367877 104.8762742
 184.3735892  78.0148654 102.8153420 185.7660986  78.4262493 103.8183350
 184.4237766  80.2157647 104.9497785 183.0280217  79.8003078 103.9503739
 185.7289208  80.7974951 102.8963196 184.2330697  81.7428999 103.0043585
 184.3328333  80.3698719 101.8883785 184.8010542  69.6789619 108.0571353
 183.2586585  70.5595741 107.8667896 184.2116181  72.4800562 109.1641875
 185.7468946  71.6187973 109.3162741 184.5087371  69.8260534 110.6080741
 183.0284861  70.7840040 110.4475076 184.1885385  72.7373520 111.5254737
 185.6475863  71.7634758 111.7051921 184.3966746  70.1668178 113.1758960
 182.9419449  71.1591222 112.9998867 184.1681845  73.1282743 113.9546315
 185.6184190  72.1408191 114.1301142 184.3877463  70.6051405 115.6781609
 182.9360939  71.5943802 115.5046289 185.6163060  72.5696533 116.6311465
 184.1679238  72.1762630 117.5752081 184.1517895  73.5584462 116.4645654
 184.7280187  70.8802503 104.5463470 183.2299227  70.6012412 105.4459758
 185.7067693  68.8169571 105.0502213 184.1810396  68.6109919 104.4378611
 184.8400450  68.2217473 107.4158266 184.5777210  67.0061249 106.2324306
 182.3925027  69.0674618 106.9009114 182.5358803  67.4986479 107.6774419
 182.4223367  66.3491193 105.5097990 182.4119557  67.8727440 104.6377341
 180.2592828  68.5150481 105.5763643 180.1804417  66.9859961 106.4687257
 180.4751578  65.7376438 104.2853392 180.5207045  67.2701868 103.4197974
 178.1618941  66.2681213 105.0815216 178.2811443  66.2340585 103.3095859
 178.2141053  67.7903538 104.1623582 192.7460000  64.0000000  98.9500000
 182.3310000  75.9640000 108.2470000 188.5988435  78.4672258 109.1858018
 187.0696208  78.4763423 109.1858476 186.5049748  77.0543454 109.1849514
 184.9767844  77.0609019 109.1843803 184.4052430  75.6610000 109.1840000
 183.0510000  75.6610000 109.1840000 185.0554269  74.6287992 109.1834242
 182.1440000  76.5650000 106.3890000 181.7729627  76.5646082 107.5224083
 181.7699482  75.9486945 109.1864991 188.9680424  77.9328952 110.0692020
 188.9687372  77.9319623 108.3042715 186.7062267  79.0159011 108.3034328
 186.7051634  79.0159044 110.0683625 186.8711151  76.5104740 110.0639224
 186.8710361  76.5119952 108.3037225 184.6095586  77.5793983 108.2921832
 184.6097875  77.5788719 110.0776810 182.6587631  76.5543881 109.1840000
 191.2770000  66.7990000 122.4900000 192.7267774  73.9002005 123.9161438
 191.2176515  73.8147848 123.8292115 190.6579757  72.9116163 124.9202000
 189.1592477  72.8560210 124.7533451 188.5401405  71.9892373 125.8263042
 187.0338159  72.1211808 125.7517451 186.4160844  71.3200000 124.6030000
 184.8700000  71.3200000 124.6030000 184.2626962  72.7467263 124.6030000
 184.7605752  73.6732788 123.4904628 184.2058467  75.0867891 123.7130727
 184.7133630  76.0502987 122.6450697 184.1614345  77.4614171 122.8658251
 184.6699850  78.4016350 121.7706482 184.1232930  79.8167717 121.9477523
 184.6358685  80.7341607 120.8498112 184.3465855  70.6701111 125.9500708
 184.6654433  71.4880878 127.1944143 184.1233105  70.8484234 128.4688002
 184.5513195  71.7123543 129.6489314 184.0350424  71.1910436 130.9835243
 184.5229724  72.1048103 132.1072741 184.0335094  71.6260682 133.4644483
 184.5213657  72.5370515 134.5783876 184.3151881  70.4493906 123.4366574
 184.6687005  68.9635280 123.3264780 184.2749989  68.0288091 124.4749994
 182.7669551  68.0441187 124.7299279 182.0924240  67.3942166 123.5394070
 180.5840011  67.4649084 123.5480254 180.1038935  66.7693068 122.2765470
 178.5958128  66.7660083 122.1844067 190.8150000  67.0670000 121.5350000
 190.7380455  66.6963397 121.5426543 190.6555611  66.3644972 123.2825043
 193.0219754  74.3016320 124.8918291 193.1621727  72.8982427 123.8264485
 190.9149720  73.4276836 122.8490912 190.7758237  74.8144455 123.9288742
 190.9212239  73.3048512 125.9072884 191.0864698  71.9027144 124.8409043
 188.9023187  72.4707845 123.7665598 188.7458951  73.8740287 124.8243450
 188.8742658  72.3272563 126.8125970 188.8543866  70.9437500 125.7225358
 186.7447068  73.1769578 125.7065596 186.7216052  71.7793389 126.7188530
 186.7363425  70.2769625 124.6523618 186.7303881  71.7224737 123.6352644
 184.5092357  73.2156140 125.5454736 183.1743203  72.6326983 124.5492458
 184.4400002  73.3207926 122.5044638 185.8537742  73.7295952 123.4819588
 184.5099731  75.4465757 124.7041851 183.1095120  75.0572478 123.7006421
 184.4189548  75.6887877 121.6552164 185.8095354  76.0807619 122.6695471
 184.4670479  77.8301915 123.8395017 183.0647292  77.4367877 122.8502742
 184.3735892  78.0148654 120.7893420 185.7660986  78.4262493 121.7923350
 184.4237766  80.2157647 122.9237785 183.0280217  79.8003078 121.9243739
 185.7289208  80.7974951 120.8703196 184.2330697  81.7428999 120.9783585
 184.3328333  80.3698719 119.8623785 184.8010542  69.6789619 126.0311353
 183.2586585  70.5595741 125.8407896 184.2116181  72.4800562 127.1381875
 185.7468946  71.6187973 127.2902741 184.5087371  69.8260534 128.5820741
 183.0284861  70.7840040 128.4215076 184.1885385  72.7373520 129.4994737
 185.6475863  71.7634758 129.6791921 184.3966746  70.1668178 131.1498960
 182.9419449  71.1591222 130.9738867 184.1681845  73.1282743 131.9286315
 185.6184190  72.1408191 132.1041142 184.3877463  70.6051405 133.6521609
 182.9360939  71.5943802 133.4786289 185.6163060  72.5696533 134.6051465
 184.1679238  72.1762630 135.5492081 184.1517895  73.5584462 134.4385654
 184.7280187  70.8802503 122.5203470 183.2299227  70.6012412 123.4199758
 185.7067693  68.8169571 123.0242213 184.1810396  68.6109919 122.4118611
 184.8400450  68.2217473 125.3898266 184.5777210  67.0061249 124.2064306
 182.3925027  69.0674618 124.8749114 182.5358803  67.4986479 125.6514419
 182.4223367  66.3491193 123.4837990 182.4119557  67.8727440 122.6117341
 180.2592828  68.5150481 123.5503643 180.1804417  66.9859961 124.4427257
 180.4751578  65.7376438 122.2593392 180.5207045  67.2701868 121.3937974
 178.1618941  66.2681213 123.0555216 178.2811443  66.2340585 121.2835859
 178.2141053  67.7903538 122.1363582 192.7460000  64.0000000 116.9240000
 182.3310000  75.9640000 126.2210000 188.5988435  78.4672258 127.1598018
 187.0696208  78.4763423 127.1598476 186.5049748  77.0543454 127.1589514
 184.9767844  77.0609019 127.1583803 184.4052430  75.6610000 127.1580000
 183.0510000  75.6610000 127.1580000 185.0554269  74.6287992 127.1574242
 182.1440000  76.5650000 124.3630000 181.7729627  76.5646082 125.4964083
 181.7699482  75.9486945 127.1604991 188.9680424  77.9328952 128.0432020
 188.9687372  77.9319623 126.2782715 186.7062267  79.0159011 126.2774328
 186.7051634  79.0159044 128.0423625 186.8711151  76.5104740 128.0379224
 186.8710361  76.5119952 126.2777225 184.6095586  77.5793983 126.2661832
 184.6097875  77.5788719 128.0516810 182.6587631  76.5543881 127.1580000
 191.2770000  66.7990000 140.4650000 192.7267774  73.9002005 141.8911438
 191.2176515  73.8147848 141.8042115 190.6579757  72.9116163 142.8952000
 189.1592477  72.8560210 142.7283451 188.5401405  71.9892373 143.8013042
 187.0338159  72.1211808 143.7267451 186.4160844  71.3200000 142.5780000
 184.8700000  71.3200000 142.5780000 184.2626962  72.7467263 142.5780000
 184.7605752  73.6732788 141.4654628 184.2058467  75.0867891 141.6880727
 184.7133630  76.0502987 140.6200697 184.1614345  77.4614171 140.8408251
 184.6699850  78.4016350 139.7456482 184.1232930  79.8167717 139.9227523
 184.6358685  80.7341607 138.8248112 184.3465855  70.6701111 143.9250708
 184.6654433  71.4880878 145.1694143 184.1233105  70.8484234 146.4438002
 184.5513195  71.7123543 147.6239314 184.0350424  71.1910436 148.9585243
 184.5229724  72.1048103 150.0822741 184.0335094  71.6260682 151.4394483
 184.5213657  72.5370515 152.5533876 184.3151881  70.4493906 141.4116574
 184.6687005  68.9635280 141.3014780 184.2749989  68.0288091 142.4499994
 182.7669551  68.0441187 142.7049279 182.0924240  67.3942166 141.5144070
 180.5840011  67.4649084 141.5230254 180.1038935  66.7693068 140.2515470
 178.5958128  66.7660083 140.1594067 190.8150000  67.0670000 139.5100000
 190.7380455  66.6963397 139.5176543 190.6555611  66.3644972 141.2575043
 193.0219754  74.3016320 142.8668291 193.1621727  72.8982427 141.8014485
 190.9149720  73.4276836 140.8240912 190.7758237  74.8144455 141.9038742
 190.9212239  73.3048512 143.8822884 191.0864698  71.9027144 142.8159043
 188.9023187  72.4707845 141.7415598 188.7458951  73.8740287 142.7993450
 188.8742658  72.3272563 144.7875970 188.8543866  70.9437500 143.6975358
 186.7447068  73.1769578 143.6815596 186.7216052  71.7793389 144.6938530
 186.7363425  70.2769625 142.6273618 186.7303881  71.7224737 141.6102644
 184.5092357  73.2156140 143.5204736 183.1743203  72.6326983 142.5242458
 184.4400002  73.3207926 140.4794638 185.8537742  73.7295952 141.4569588
 184.5099731  75.4465757 142.6791851 183.1095120  75.0572478 141.6756421
 184.4189548  75.6887877 139.6302164 185.8095354  76.0807619 140.6445471
 184.4670479  77.8301915 141.8145017 183.0647292  77.4367877 140.8252742
 184.3735892  78.0148654 138.7643420 185.7660986  78.4262493 139.7673350
 184.4237766  80.2157647 140.8987785 183.0280217  79.8003078 139.8993739
 185.7289208  80.7974951 138.8453196 184.2330697  81.7428999 138.9533585
 184.3328333  80.3698719 137.8373785 184.8010542  69.6789619 144.0061353
 183.2586585  70.5595741 143.8157896 184.2116181  72.4800562 145.1131875
 185.7468946  71.6187973 145.2652741 184.5087371  69.8260534 146.5570741
 183.0284861  70.7840040 146.3965076 184.1885385  72.7373520 147.4744737
 185.6475863  71.7634758 147.6541921 184.3966746  70.1668178 149.1248960
 182.9419449  71.1591222 148.9488867 184.1681845  73.1282743 149.9036315
 185.6184190  72.1408191 150.0791142 184.3877463  70.6051405 151.6271609
 182.9360939  71.5943802 151.4536289 185.6163060  72.5696533 152.5801465
 184.1679238  72.1762630 153.5242081 184.1517895  73.5584462 152.4135654
 184.7280187  70.8802503 140.4953470 183.2299227  70.6012412 141.3949758
 185.7067693  68.8169571 140.9992213 184.1810396  68.6109919 140.3868611
 184.8400450  68.2217473 143.3648266 184.5777210  67.0061249 142.1814306
 182.3925027  69.0674618 142.8499114 182.5358803  67.4986479 143.6264419
 182.4223367  66.3491193 141.4587990 182.4119557  67.8727440 140.5867341
 180.2592828  68.5150481 141.5253643 180.1804417  66.9859961 142.4177257
 180.4751578  65.7376438 140.2343392 180.5207045  67.2701868 139.3687974
 178.1618941  66.2681213 141.0305216 178.2811443  66.2340585 139.2585859
 178.2141053  67.7903538 140.1113582 192.7460000  64.0000000 134.8990000
 182.3310000  75.9640000 144.1960000 188.5988435  78.4672258 145.1348018
 187.0696208  78.4763423 145.1348476 186.5049748  77.0543454 145.1339514
 184.9767844  77.0609019 145.1333803 184.4052430  75.6610000 145.1330000
 183.0510000  75.6610000 145.1330000 185.0554269  74.6287992 145.1324242
 182.1440000  76.5650000 142.3380000 181.7729627  76.5646082 143.4714083
 181.7699482  75.9486945 145.1354991 188.9680424  77.9328952 146.0182020
 188.9687372  77.9319623 144.2532715 186.7062267  79.0159011 144.2524328
 186.7051634  79.0159044 146.0173625 186.8711151  76.5104740 146.0129224
 186.8710361  76.5119952 144.2527225 184.6095586  77.5793983 144.2411832
 184.6097875  77.5788719 146.0266810 182.6587631  76.5543881 145.1330000
 191.2770000  66.7990000 158.4400000 192.7267774  73.9002005 159.8661438
 191.2176515  73.8147848 159.7792115 190.6579757  72.9116163 160.8702000
 189.1592477  72.8560210 160.7033451 188.5401405  71.9892373 161.7763042
 187.0338159  72.1211808 161.7017451 186.4160844  71.3200000 160.5530000
 184.8700000  71.3200000 160.5530000 184.2626962  72.7467263 160.5530000
 184.7605752  73.6732788 159.4404628 184.2058467  75.0867891 159.6630727
 184.7133630  76.0502987 158.5950697 184.1614345  77.4614171 158.8158251
 184.6699850  78.4016350 157.7206482 184.1232930  79.8167717 157.8977523
 184.6358685  80.7341607 156.7998112 184.3465855  70.6701111 161.9000708
 184.6654433  71.4880878 163.1444143 184.1233105  70.8484234 164.4188002
 184.5513195  71.7123543 165.5989314 184.0350424  71.1910436 166.9335243
 184.5229724  72.1048103 168.0572741 184.0335094  71.6260682 169.4144483
 184.5213657  72.5370515 170.5283876 184.3151881  70.4493906 159.3866574
 184.6687005  68.9635280 159.2764780 184.2749989  68.0288091 160.4249994
 182.7669551  68.0441187 160.6799279 182.0924240  67.3942166 159.4894070
 180.5840011  67.4649084 159.4980254 180.1038935  66.7693068 158.2265470
 178.5958128  66.7660083 158.1344067 190.8150000  67.0670000 157.4850000
 190.7380455  66.6963397 157.4926543 190.6555611  66.3644972 159.2325043
 193.0219754  74.3016320 160.8418291 193.1621727  72.8982427 159.7764485
 190.9149720  73.4276836 158.7990912 190.7758237  74.8144455 159.8788742
 190.9212239  73.3048512 161.8572884 191.0864698  71.9027144 160.7909043
 188.9023187  72.4707845 159.7165598 188.7458951  73.8740287 160.7743450
 188.8742658  72.3272563 162.7625970 188.8543866  70.9437500 161.6725358
 186.7447068  73.1769578 161.6565596 186.7216052  71.7793389 162.6688530
 186.7363425  70.2769625 160.6023618 186.7303881  71.7224737 159.5852644
 184.5092357  73.2156140 161.4954736 183.1743203  72.6326983 160.4992458
 184.4400002  73.3207926 158.4544638 185.8537742  73.7295952 159.4319588
 184.5099731  75.4465757 160.6541851 183.1095120  75.0572478 159.6506421
 184.4189548  75.6887877 157.6052164 185.8095354  76.0807619 158.6195471
 184.4670479  77.8301915 159.7895017 183.0647292  77.4367877 158.8002742
 184.3735892  78.0148654 156.7393420 185.7660986  78.4262493 157.7423350
 184.4237766  80.2157647 158.8737785 183.0280217  79.8003078 157.8743739
 185.7289208  80.7974951 156.8203196 184.2330697  81.7428999 156.9283585
 184.3328333  80.3698719 155.8123785 184.8010542  69.6789619 161.9811353
 183.2586585  70.5595741 161.7907896 184.2116181  72.4800562 163.0881875
 185.7468946  71.6187973 163.2402741 184.5087371  69.8260534 164.5320741
 183.0284861  70.7840040 164.3715076 184.1885385  72.7373520 165.4494737
 185.6475863  71.7634758 165.6291921 184.3966746  70.1668178 167.0998960
 182.9419449  71.1591222 166.9238867 184.1681845  73.1282743 167.8786315
 185.6184190  72.1408191 168.0541142 184.3877463  70.6051405 169.6021609
 182.9360939  71.5943802 169.4286289 185.6163060  72.5696533 170.5551465
 184.1679238  72.1762630 171.4992081 184.1517895  73.5584462 170.3885654
 184.7280187  70.8802503 158.4703470 183.2299227  70.6012412 159.3699758
 185.7067693  68.8169571 158.9742213 184.1810396  68.6109919 158.3618611
 184.8400450  68.2217473 161.3398266 184.5777210  67.0061249 160.1564306
 182.3925027  69.0674618 160.8249114 182.5358803  67.4986479 161.6014419
 182.4223367  66.3491193 159.4337990 182.4119557  67.8727440 158.5617341
 180.2592828  68.5150481 159.5003643 180.1804417  66.9859961 160.3927257
 180.4751578  65.7376438 158.2093392 180.5207045  67.2701868 157.3437974
 178.1618941  66.2681213 159.0055216 178.2811443  66.2340585 157.2335859
 178.2141053  67.7903538 158.0863582 192.7460000  64.0000000 152.8740000
 182.3310000  75.9640000 162.1710000 188.5988435  78.4672258 163.1098018
 187.0696208  78.4763423 163.1098476 186.5049748  77.0543454 163.1089514
 184.9767844  77.0609019 163.1083803 184.4052430  75.6610000 163.1080000
 183.0510000  75.6610000 163.1080000 185.0554269  74.6287992 163.1074242
 182.1440000  76.5650000 160.3130000 181.7729627  76.5646082 161.4464083
 181.7699482  75.9486945 163.1104991 188.9680424  77.9328952 163.9932020
 188.9687372  77.9319623 162.2282715 186.7062267  79.0159011 162.2274328
 186.7051634  79.0159044 163.9923625 186.8711151  76.5104740 163.9879224
 186.8710361  76.5119952 162.2277225 184.6095586  77.5793983 162.2161832
 184.6097875  77.5788719 164.0016810 182.6587631  76.5543881 163.1080000
 191.2770000  66.7990000 176.4150000 192.7267774  73.9002005 177.8411438
 191.2176515  73.8147848 177.7542115 190.6579757  72.9116163 178.8452000
 189.1592477  72.8560210 178.6783451 188.5401405  71.9892373 179.7513042
 187.0338159  72.1211808 179.6767451 186.4160844  71.3200000 178.5280000
 184.8700000  71.3200000 178.5280000 184.2626962  72.7467263 178.5280000
 184.7605752  73.6732788 177.4154628 184.2058467  75.0867891 177.6380727
 184.7133630  76.0502987 176.5700697 184.1614345  77.4614171 176.7908251
 184.6699850  78.4016350 175.6956482 184.1232930  79.8167717 175.8727523
 184.6358685  80.7341607 174.7748112 184.3465855  70.6701111 179.8750708
 184.6654433  71.4880878 181.1194143 184.1233105  70.8484234 182.3938002
 184.5513195  71.7123543 183.5739314 184.0350424  71.1910436 184.9085243
 184.5229724  72.1048103 186.0322741 184.0335094  71.6260682 187.3894483
 184.5213657  72.5370515 188.5033876 184.3151881  70.4493906 177.3616574
 184.6687005  68.9635280 177.2514780 184.2749989  68.0288091 178.3999994
 182.7669551  68.0441187 178.6549279 182.0924240  67.3942166 177.4644070
 180.5840011  67.4649084 177.4730254 180.1038935  66.7693068 176.2015470
 178.5958128  66.7660083 176.1094067 190.8150000  67.0670000 175.4600000
 190.7380455  66.6963397 175.4676543 190.6555611  66.3644972 177.2075043
 193.0219754  74.3016320 178.8168291 193.1621727  72.8982427 177.7514485
 190.9149720  73.4276836 176.7740912 190.7758237  74.8144455 177.8538742
 190.9212239  73.3048512 179.8322884 191.0864698  71.9027144 178.7659043
 188.9023187  72.4707845 177.6915598 188.7458951  73.8740287 178.7493450
 188.8742658  72.3272563 180.7375970 188.8543866  70.9437500 179.6475358
 186.7447068  73.1769578 179.6315596 186.7216052  71.7793389 180.6438530
 186.7363425  70.2769625 178.5773618 186.7303881  71.7224737 177.5602644
 184.5092357  73.2156140 179.4704736 183.1743203  72.6326983 178.4742458
 184.4400002  73.3207926 176.4294638 185.8537742  73.7295952 177.4069588
 184.5099731  75.4465757 178.6291851 183.1095120  75.0572478 177.6256421
 184.4189548  75.6887877 175.5802164 185.8095354  76.0807619 176.5945471
 184.4670479  77.8301915 177.7645017 183.0647292  77.4367877 176.7752742
 184.3735892  78.0148654 174.7143420 185.7660986  78.4262493 175.7173350
 184.4237766  80.2157647 176.8487785 183.0280217  79.8003078 175.8493739
 185.7289208  80.7974951 174.7953196 184.2330697  81.7428999 174.9033585
 184.3328333  80.3698719 173.7873785 184.8010542  69.6789619 179.9561353
 183.2586585  70.5595741 179.7657896 184.2116181  72.4800562 181.0631875
 185.7468946  71.6187973 181.2152741 184.5087371  69.8260534 182.5070741
 183.0284861  70.7840040 182.3465076 184.1885385  72.7373520 183.4244737
 185.6475863  71.7634758 183.6041921 184.3966746  70.1668178 185.0748960
 182.9419449  71.1591222 184.8988867 184.1681845  73.1282743 185.8536315
 185.6184190  72.1408191 186.0291142 184.3877463  70.6051405 187.5771609
 182.9360939  71.5943802 187.4036289 185.6163060  72.5696533 188.5301465
 184.1679238  72.1762630 189.4742081 184.1517895  73.5584462 188.3635654
 184.7280187  70.8802503 176.4453470 183.2299227  70.6012412 177.3449758
 185.7067693  68.8169571 176.9492213 184.1810396  68.6109919 176.3368611
 184.8400450  68.2217473 179.3148266 184.5777210  67.0061249 178.1314306
 182.3925027  69.0674618 178.7999114 182.5358803  67.4986479 179.5764419
 182.4223367  66.3491193 177.4087990 182.4119557  67.8727440 176.5367341
 180.2592828  68.5150481 177.4753643 180.1804417  66.9859961 178.3677257
 180.4751578  65.7376438 176.1843392 180.5207045  67.2701868 175.3187974
 178.1618941  66.2681213 176.9805216 178.2811443  66.2340585 175.2085859
 178.2141053  67.7903538 176.0613582 192.7460000  64.0000000 170.8490000
 182.3310000  75.9640000 180.1460000 188.5988435  78.4672258 181.0848018
 187.0696208  78.4763423 181.0848476 186.5049748  77.0543454 181.0839514
 184.9767844  77.0609019 181.0833803 184.4052430  75.6610000 181.0830000
 183.0510000  75.6610000 181.0830000 185.0554269  74.6287992 181.0824242
 182.1440000  76.5650000 178.2880000 181.7729627  76.5646082 179.4214083
 181.7699482  75.9486945 181.0854991 188.9680424  77.9328952 181.9682020
 188.9687372  77.9319623 180.2032715 186.7062267  79.0159011 180.2024328
 186.7051634  79.0159044 181.9673625 186.8711151  76.5104740 181.9629224
 186.8710361  76.5119952 180.2027225 184.6095586  77.5793983 180.1911832
 184.6097875  77.5788719 181.9766810 182.6587631  76.5543881 181.0830000
 191.2770000  85.4030000  68.5660000 192.7267774  92.5042005  69.9921438
 191.2176515  92.4187848  69.9052115 190.6579757  91.5156163  70.9962000
 189.1592477  91.4600210  70.8293451 188.5401405  90.5932373  71.9023042
 187.0338159  90.7251808  71.8277451 186.4160844  89.9240000  70.6790000
 184.8700000  89.9240000  70.6790000 184.2626962  91.3507263  70.6790000
 184.7605752  92.2772788  69.5664628 184.2058467  93.6907891  69.7890727
 184.7133630  94.6542987  68.7210697 184.1614345  96.0654171  68.9418251
 184.6699850  97.0056350  67.8466482 184.1232930  98.4207717  68.0237523
 184.6358685  99.3381607  66.9258112 184.3465855  89.2741111  72.0260708
 184.6654433  90.0920878  73.2704143 184.1233105  89.4524234  74.5448002
 184.5513195  90.3163543  75.7249314 184.0350424  89.7950436  77.0595243
 184.5229724  90.7088103  78.1832741 184.0335094  90.2300682  79.5404483
 184.5213657  91.1410515  80.6543876 184.3151881  89.0533906  69.5126574
 184.6687005  87.5675280  69.4024780 184.2749989  86.6328091  70.5509994
 182.7669551  86.6481187  70.8059279 182.0924240  85.9982166  69.6154070
 180.5840011  86.0689084  69.6240254 180.1038935  85.3733068  68.3525470
 178.5958128  85.3700083  68.2604067 190.8150000  85.6710000  67.6110000
 190.7380455  85.3003397  67.6186543 190.6555611  84.9684972  69.3585043
 193.0219754  92.9056320  70.9678291 193.1621727  91.5022427  69.9024485
 190.9149720  92.0316836  68.9250912 190.7758237  93.4184455  70.0048742
 190.9212239  91.9088512  71.9832884 191.0864698  90.5067144  70.9169043
 188.9023187  91.0747845  69.8425598 188.7458951  92.4780287  70.9003450
 188.8742658  90.9312563  72.8885970 188.8543866  89.5477500  71.7985358
 186.7447068  91.7809578  71.7825596 186.7216052  90.3833389  72.7948530
 186.7363425  88.8809625  70.7283618 186.7303881  90.3264737  69.7112644
 184.5092357  91.8196140  71.6214736 183.1743203  91.2366983  70.6252458
 184.4400002  91.9247926  68.5804638 185.8537742  92.3335952  69.5579588
 184.5099731  94.0505757  70.7801851 183.1095120  93.6612478  69.7766421
 184.4189548  94.2927877  67.7312164 185.8095354  94.6847619  68.7455471
 184.4670479  96.4341915  69.9155017 183.0647292  96.0407877  68.9262742
 184.3735892  96.6188654  66.8653420 185.7660986  97.0302493  67.8683350
 184.4237766  98.8197647  68.9997785 183.0280217  98.4043078  68.0003739
 185.7289208  99.4014951  66.9463196 184.2330697 100.3468999  67.0543585
 184.3328333  98.9738719  65.9383785 184.8010542  88.2829619  72.1071353
 183.2586585  89.1635741  71.9167896 184.2116181  91.0840562  73.2141875
 185.7468946  90.2227973  73.3662741 184.5087371  88.4300534  74.6580741
 183.0284861  89.3880040  74.4975076 184.1885385  91.3413520  75.5754737
 185.6475863  90.3674758  75.7551921 184.3966746  88.7708178  77.2258960
 182.9419449  89.7631222  77.0498867 184.1681845  91.7322743  78.0046315
 185.6184190  90.7448191  78.1801142 184.3877463  89.2091405  79.7281609
 182.9360939  90.1983802  79.5546289 185.6163060  91.1736533  80.6811465
 184.1679238  90.7802630  81.6252081 184.1517895  92.1624462  80.5145654
 184.7280187  89.4842503  68.5963470 183.2299227  89.2052412  69.4959758
 185.7067693  87.4209571  69.1002213 184.1810396  87.2149919  68.4878611
 184.8400450  86.8257473  71.4658266 184.5777210  85.6101249  70.2824306
 182.3925027  87.6714618  70.9509114 182.5358803  86.1026479  71.7274419
 182.4223367  84.9531193  69.5597990 182.4119557  86.4767440  68.6877341
 180.2592828  87.1190481  69.6263643 180.1804417  85.5899961  70.5187257
 180.4751578  84.3416438  68.3353392 180.5207045  85.8741868  67.4697974
 178.1618941  84.8721213  69.1315216 178.2811443  84.8380585  67.3595859
 178.2141053  86.3943538  68.2123582 192.7460000  82.6040000  63.0000000
 182.3310000  94.5680000  72.2970000 188.5988435  97.0712258  73.2358018
 187.0696208  97.0803423  73.2358476 186.5049748  95.6583454  73.2349514
 184.9767844  95.6649019  73.2343803 184.4052430  94.2650000  73.2340000
 183.0510000  94.2650000  73.2340000 185.0554269  93.2327992  73.2334242
 182.1440000  95.1690000  70.4390000 181.7729627  95.1686082  71.5724083
 181.7699482  94.5526945  73.2364991 188.9680424  96.5368952  74.1192020
 188.9687372  96.5359623  72.3542715 186.7062267  97.6199011  72.3534328
 186.7051634  97.6199044  74.1183625 186.8711151  95.1144740  74.1139224
 186.8710361  95.1159952  72.3537225 184.6095586  96.1833983  72.3421832
 184.6097875  96.1828719  74.1276810 182.6587631  95.1583881  73.2340000
 191.2770000  85.4030000  86.5410000 192.7267774  92.5042005  87.9671438
 191.2176515  92.4187848  87.8802115 190.6579757  91.5156163  88.9712000
 189.1592477  91.4600210  88.8043451 188.5401405  90.5932373  89.8773042
 187.0338159  90.7251808  89.8027451 186.4160844  89.9240000  88.6540000
 184.8700000  89.9240000  88.6540000 184.2626962  91.3507263  88.6540000
 184.7605752  92.2772788  87.5414628 184.2058467  93.6907891  87.7640727
 184.7133630  94.6542987  86.6960697 184.1614345  96.0654171  86.9168251
 184.6699850  97.0056350  85.8216482 184.1232930  98.4207717  85.9987523
 184.6358685  99.3381607  84.9008112 184.3465855  89.2741111  90.0010708
 184.6654433  90.0920878  91.2454143 184.1233105  89.4524234  92.5198002
 184.5513195  90.3163543  93.6999314 184.0350424  89.7950436  95.0345243
 184.5229724  90.7088103  96.1582741 184.0335094  90.2300682  97.5154483
 184.5213657  91.1410515  98.6293876 184.3151881  89.0533906  87.4876574
 184.6687005  87.5675280  87.3774780 184.2749989  86.6328091  88.5259994
 182.7669551  86.6481187  88.7809279 182.0924240  85.9982166  87.5904070
 180.5840011  86.0689084  87.5990254 180.1038935  85.3733068  86.3275470
 178.5958128  85.3700083  86.2354067 190.8150000  85.6710000  85.5860000
 190.7380455  85.3003397  85.5936543 190.6555611  84.9684972  87.3335043
 193.0219754  92.9056320  88.9428291 193.1621727  91.5022427  87.8774485
 190.9149720  92.0316836  86.9000912 190.7758237  93.4184455  87.9798742
 190.9212239  91.9088512  89.9582884 191.0864698  90.5067144  88.8919043
 188.9023187  91.0747845  87.8175598 188.7458951  92.4780287  88.8753450
 188.8742658  90.9312563  90.8635970 188.8543866  89.5477500  89.7735358
 186.7447068  91.7809578  89.7575596 186.7216052  90.3833389  90.7698530
 186.7363425  88.8809625  88.7033618 186.7303881  90.3264737  87.6862644
 184.5092357  91.8196140  89.5964736 183.1743203  91.2366983  88.6002458
 184.4400002  91.9247926  86.5554638 185.8537742  92.3335952  87.5329588
 184.5099731  94.0505757  88.7551851 183.1095120  93.6612478  87.7516421
 184.4189548  94.2927877  85.7062164 185.8095354  94.6847619  86.7205471
 184.4670479  96.4341915  87.8905017 183.0647292  96.0407877  86.9012742
 184.3735892  96.6188654  84.8403420 185.7660986  97.0302493  85.8433350
 184.4237766  98.8197647  86.9747785 183.0280217  98.4043078  85.9753739
 185.7289208  99.4014951  84.9213196 184.2330697 100.3468999  85.0293585
 184.3328333  98.9738719  83.9133785 184.8010542  88.2829619  90.0821353
 183.2586585  89.1635741  89.8917896 184.2116181  91.0840562  91.1891875
 185.7468946  90.2227973  91.3412741 184.5087371  88.4300534  92.6330741
 183.0284861  89.3880040  92.4725076 184.1885385  91.3413520  93.5504737
 185.6475863  90.3674758  93.7301921 184.3966746  88.7708178  95.2008960
 182.9419449  89.7631222  95.0248867 184.1681845  91.7322743  95.9796315
 185.6184190  90.7448191  96.1551142 184.3877463  89.2091405  97.7031609
 182.9360939  90.1983802  97.5296289 185.6163060  91.1736533  98.6561465
 184.1679238  90.7802630  99.6002081 184.1517895  92.1624462  98.4895654
 184.7280187  89.4842503  86.5713470 183.2299227  89.2052412  87.4709758
 185.7067693  87.4209571  87.0752213 184.1810396  87.2149919  86.4628611
 184.8400450  86.8257473  89.4408266 184.5777210  85.6101249  88.2574306
 182.3925027  87.6714618  88.9259114 182.5358803  86.1026479  89.7024419
 182.4223367  84.9531193  87.5347990 182.4119557  86.4767440  86.6627341
 180.2592828  87.1190481  87.6013643 180.1804417  85.5899961  88.4937257
 180.4751578  84.3416438  86.3103392 180.5207045  85.8741868  85.4447974
 178.1618941  84.8721213  87.1065216 178.2811443  84.8380585  85.3345859
 178.2141053  86.3943538  86.1873582 192.7460000  82.6040000  80.9750000
 182.3310000  94.5680000  90.2720000 188.5988435  97.0712258  91.2108018
 187.0696208  97.0803423  91.2108476 186.5049748  95.6583454  91.2099514
 184.9767844  95.6649019  91.2093803 184.4052430  94.2650000  91.2090000
 183.0510000  94.2650000  91.2090000 185.0554269  93.2327992  91.2084242
 182.1440000  95.1690000  88.4140000 181.7729627  95.1686082  89.5474083
 181.7699482  94.5526945  91.2114991 188.9680424  96.5368952  92.0942020
 188.9687372  96.5359623  90.3292715 186.7062267  97.6199011  90.3284328
 186.7051634  97.6199044  92.0933625 186.8711151  95.1144740  92.0889224
 186.8710361  95.1159952  90.3287225 184.6095586  96.1833983  90.3171832
 184.6097875  96.1828719  92.1026810 182.6587631  95.1583881  91.2090000
 191.2770000  85.4030000 104.5160000 192.7267774  92.5042005 105.9421438
 191.2176515  92.4187848 105.8552115 190.6579757  91.5156163 106.9462000
 189.1592477  91.4600210 106.7793451 188.5401405  90.5932373 107.8523042
 187.0338159  90.7251808 107.7777451 186.4160844  89.9240000 106.6290000
 184.8700000  89.9240000 106.6290000 184.2626962  91.3507263 106.6290000
 184.7605752  92.2772788 105.5164628 184.2058467  93.6907891 105.7390727
 184.7133630  94.6542987 104.6710697 184.1614345  96.0654171 104.8918251
 184.6699850  97.0056350 103.7966482 184.1232930  98.4207717 103.9737523
 184.6358685  99.3381607 102.8758112 184.3465855  89.2741111 107.9760708
 184.6654433  90.0920878 109.2204143 184.1233105  89.4524234 110.4948002
 184.5513195  90.3163543 111.6749314 184.0350424  89.7950436 113.0095243
 184.5229724  90.7088103 114.1332741 184.0335094  90.2300682 115.4904483
 184.5213657  91.1410515 116.6043876 184.3151881  89.0533906 105.4626574
 184.6687005  87.5675280 105.3524780 184.2749989  86.6328091 106.5009994
 182.7669551  86.6481187 106.7559279 182.0924240  85.9982166 105.5654070
 180.5840011  86.0689084 105.5740254 180.1038935  85.3733068 104.3025470
 178.5958128  85.3700083 104.2104067 190.8150000  85.6710000 103.5610000
 190.7380455  85.3003397 103.5686543 190.6555611  84.9684972 105.3085043
 193.0219754  92.9056320 106.9178291 193.1621727  91.5022427 105.8524485
 190.9149720  92.0316836 104.8750912 190.7758237  93.4184455 105.9548742
 190.9212239  91.9088512 107.9332884 191.0864698  90.5067144 106.8669043
 188.9023187  91.0747845 105.7925598 188.7458951  92.4780287 106.8503450
 188.8742658  90.9312563 108.8385970 188.8543866  89.5477500 107.7485358
 186.7447068  91.7809578 107.7325596 186.7216052  90.3833389 108.7448530
 186.7363425  88.8809625 106.6783618 186.7303881  90.3264737 105.6612644
 184.5092357  91.8196140 107.5714736 183.1743203  91.2366983 106.5752458
 184.4400002  91.9247926 104.5304638 185.8537742  92.3335952 105.5079588
 184.5099731  94.0505757 106.7301851 183.1095120  93.6612478 105.7266421
 184.4189548  94.2927877 103.6812164 185.8095354  94.6847619 104.6955471
 184.4670479  96.4341915 105.8655017 183.0647292  96.0407877 104.8762742
 184.3735892  96.6188654 102.8153420 185.7660986  97.0302493 103.8183350
 184.4237766  98.8197647 104.9497785 183.0280217  98.4043078 103.9503739
 185.7289208  99.4014951 102.8963196 184.2330697 100.3468999 103.0043585
 184.3328333  98.9738719 101.8883785 184.8010542  88.2829619 108.0571353
 183.2586585  89.1635741 107.8667896 184.2116181  91.0840562 109.1641875
 185.7468946  90.2227973 109.3162741 184.5087371  88.4300534 110.6080741
 183.0284861  89.3880040 110.4475076 184.1885385  91.3413520 111.5254737
 185.6475863  90.3674758 111.7051921 184.3966746  88.7708178 113.1758960
 182.9419449  89.7631222 112.9998867 184.1681845  91.7322743 113.9546315
 185.6184190  90.7448191 114.1301142 184.3877463  89.2091405 115.6781609
 182.9360939  90.1983802 115.5046289 185.6163060  91.1736533 116.6311465
 184.1679238  90.7802630 117.5752081 184.1517895  92.1624462 116.4645654
 184.7280187  89.4842503 104.5463470 183.2299227  89.2052412 105.4459758
 185.7067693  87.4209571 105.0502213 184.1810396  87.2149919 104.4378611
 184.8400450  86.8257473 107.4158266 184.5777210  85.6101249 106.2324306
 182.3925027  87.6714618 106.9009114 182.5358803  86.1026479 107.6774419
 182.4223367  84.9531193 105.5097990 182.4119557  86.4767440 104.6377341
 180.2592828  87.1190481 105.5763643 180.1804417  85.5899961 106.4687257
 180.4751578  84.3416438 104.2853392 180.5207045  85.8741868 103.4197974
 178.1618941  84.8721213 105.0815216 178.2811443  84.8380585 103.3095859
 178.2141053  86.3943538 104.1623582 192.7460000  82.6040000  98.9500000
 182.3310000  94.5680000 108.2470000 188.5988435  97.0712258 109.1858018
 187.0696208  97.0803423 109.1858476 186.5049748  95.6583454 109.1849514
 184.9767844  95.6649019 109.1843803 184.4052430  94.2650000 109.1840000
 183.0510000  94.2650000 109.1840000 185.0554269  93.2327992 109.1834242
 182.1440000  95.1690000 106.3890000 181.7729627  95.1686082 107.5224083
 181.7699482  94.5526945 109.1864991 188.9680424  96.5368952 110.0692020
 188.9687372  96.5359623 108.3042715 186.7062267  97.6199011 108.3034328
 186.7051634  97.6199044 110.0683625 186.8711151  95.1144740 110.0639224
 186.8710361  95.1159952 108.3037225 184.6095586  96.1833983 108.2921832
 184.6097875  96.1828719 110.0776810 182.6587631  95.1583881 109.1840000
 191.2770000  85.4030000 122.4900000 192.7267774  92.5042005 123.9161438
 191.2176515  92.4187848 123.8292115 190.6579757  91.5156163 124.9202000
 189.1592477  91.4600210 124.7533451 188.5401405  90.5932373 125.8263042
 187.0338159  90.7251808 125.7517451 186.4160844  89.9240000 124.6030000
 184.8700000  89.9240000 124.6030000 184.2626962  91.3507263 124.6030000
 184.7605752  92.2772788 123.4904628 184.2058467  93.6907891 123.7130727
 184.7133630  94.6542987 122.6450697 184.1614345  96.0654171 122.8658251
 184.6699850  97.0056350 121.7706482 184.1232930  98.4207717 121.9477523
 184.6358685  99.3381607 120.8498112 184.3465855  89.2741111 125.9500708
 184.6654433  90.0920878 127.1944143 184.1233105  89.4524234 128.4688002
 184.5513195  90.3163543 129.6489314 184.0350424  89.7950436 130.9835243
 184.5229724  90.7088103 132.1072741 184.0335094  90.2300682 133.4644483
 184.5213657  91.1410515 134.5783876 184.3151881  89.0533906 123.4366574
 184.6687005  87.5675280 123.3264780 184.2749989  86.6328091 124.4749994
 182.7669551  86.6481187 124.7299279 182.0924240  85.9982166 123.5394070
 180.5840011  86.0689084 123.5480254 180.1038935  85.3733068 122.2765470
 178.5958128  85.3700083 122.1844067 190.8150000  85.6710000 121.5350000
 190.7380455  85.3003397 121.5426543 190.6555611  84.9684972 123.2825043
 193.0219754  92.9056320 124.8918291 193.1621727  91.5022427 123.8264485
 190.9149720  92.0316836 122.8490912 190.7758237  93.4184455 123.9288742
 190.9212239  91.9088512 125.9072884 191.0864698  90.5067144 124.8409043
 188.9023187  91.0747845 123.7665598 188.7458951  92.4780287 124.8243450
 188.8742658  90.9312563 126.8125970 188.8543866  89.5477500 125.7225358
 186.7447068  91.7809578 125.7065596 186.7216052  90.3833389 126.7188530
 186.7363425  88.8809625 124.6523618 186.7303881  90.3264737 123.6352644
 184.5092357  91.8196140 125.5454736 183.1743203  91.2366983 124.5492458
 184.4400002  91.9247926 122.5044638 185.8537742  92.3335952 123.4819588
 184.5099731  94.0505757 124.7041851 183.1095120  93.6612478 123.7006421
 184.4189548  94.2927877 121.6552164 185.8095354  94.6847619 122.6695471
 184.4670479  96.4341915 123.8395017 183.0647292  96.0407877 122.8502742
 184.3735892  96.6188654 120.7893420 185.7660986  97.0302493 121.7923350
 184.4237766  98.8197647 122.9237785 183.0280217  98.4043078 121.9243739
 185.7289208  99.4014951 120.8703196 184.2330697 100.3468999 120.9783585
 184.3328333  98.9738719 119.8623785 184.8010542  88.2829619 126.0311353
 183.2586585  89.1635741 125.8407896 184.2116181  91.0840562 127.1381875
 185.7468946  90.2227973 127.2902741 184.5087371  88.4300534 128.5820741
 183.0284861  89.3880040 128.4215076 184.1885385  91.3413520 129.4994737
 185.6475863  90.3674758 129.6791921 184.3966746  88.7708178 131.1498960
 182.9419449  89.7631222 130.9738867 184.1681845  91.7322743 131.9286315
 185.6184190  90.7448191 132.1041142 184.3877463  89.2091405 133.6521609
 182.9360939  90.1983802 133.4786289 185.6163060  91.1736533 134.6051465
 184.1679238  90.7802630 135.5492081 184.1517895  92.1624462 134.4385654
 184.7280187  89.4842503 122.5203470 183.2299227  89.2052412 123.4199758
 185.7067693  87.4209571 123.0242213 184.1810396  87.2149919 122.4118611
 184.8400450  86.8257473 125.3898266 184.5777210  85.6101249 124.2064306
 182.3925027  87.6714618 124.8749114 182.5358803  86.1026479 125.6514419
 182.4223367  84.9531193 123.4837990 182.4119557  86.4767440 122.6117341
 180.2592828  87.1190481 123.5503643 180.1804417  85.5899961 124.4427257
 180.4751578  84.3416438 122.2593392 180.5207045  85.8741868 121.3937974
 178.1618941  84.8721213 123.0555216 178.2811443  84.8380585 121.2835859
 178.2141053  86.3943538 122.1363582 192.7460000  82.6040000 116.9240000
 182.3310000  94.5680000 126.2210000 188.5988435  97.0712258 127.1598018
 187.0696208  97.0803423 127.1598476 186.5049748  95.6583454 127.1589514
 184.9767844  95.6649019 127.1583803 184.4052430  94.2650000 127.1580000
 183.0510000  94.2650000 127.1580000 185.0554269  93.2327992 127.1574242
 182.1440000  95.1690000 124.3630000 181.7729627  95.1686082 125.4964083
 181.7699482  94.5526945 127.1604991 188.9680424  96.5368952 128.0432020
 188.9687372  96.5359623 126.2782715 186.7062267  97.6199011 126.2774328
 186.7051634  97.6199044 128.0423625 186.8711151  95.1144740 128.0379224
 186.8710361  95.1159952 126.2777225 184.6095586  96.1833983 126.2661832
 184.6097875  96.1828719 128.0516810 182.6587631  95.1583881 127.1580000
 191.2770000  85.4030000 140.4650000 192.7267774  92.5042005 141.8911438
 191.2176515  92.4187848 141.8042115 190.6579757  91.5156163 142.8952000
 189.1592477  91.4600210 142.7283451 188.5401405  90.5932373 143.8013042
 187.0338159  90.7251808 143.7267451 186.4160844  89.9240000 142.5780000
 184.8700000  89.9240000 142.5780000 184.2626962  91.3507263 142.5780000
 184.7605752  92.2772788 141.4654628 184.2058467  93.6907891 141.6880727
 184.7133630  94.6542987 140.6200697 184.1614345  96.0654171 140.8408251
 184.6699850  97.0056350 139.7456482 184.1232930  98.4207717 139.9227523
 184.6358685  99.3381607 138.8248112 184.3465855  89.2741111 143.9250708
 184.6654433  90.0920878 145.1694143 184.1233105  89.4524234 146.4438002
 184.5513195  90.3163543 147.6239314 184.0350424  89.7950436 148.9585243
 184.5229724  90.7088103 150.0822741 184.0335094  90.2300682 151.4394483
 184.5213657  91.1410515 152.5533876 184.3151881  89.0533906 141.4116574
 184.6687005  87.5675280 141.3014780 184.2749989  86.6328091 142.4499994
 182.7669551  86.6481187 142.7049279 182.0924240  85.9982166 141.5144070
 180.5840011  86.0689084 141.5230254 180.1038935  85.3733068 140.2515470
 178.5958128  85.3700083 140.1594067 190.8150000  85.6710000 139.5100000
 190.7380455  85.3003397 139.5176543 190.6555611  84.9684972 141.2575043
 193.0219754  92.9056320 142.8668291 193.1621727  91.5022427 141.8014485
 190.9149720  92.0316836 140.8240912 190.7758237  93.4184455 141.9038742
 190.9212239  91.9088512 143.8822884 191.0864698  90.5067144 142.8159043
 188.9023187  91.0747845 141.7415598 188.7458951  92.4780287 142.7993450
 188.8742658  90.9312563 144.7875970 188.8543866  89.5477500 143.6975358
 186.7447068  91.7809578 143.6815596 186.7216052  90.3833389 144.6938530
 186.7363425  88.8809625 142.6273618 186.7303881  90.3264737 141.6102644
 184.5092357  91.8196140 143.5204736 183.1743203  91.2366983 142.5242458
 184.4400002  91.9247926 140.4794638 185.8537742  92.3335952 141.4569588
 184.5099731  94.0505757 142.6791851 183.1095120  93.6612478 141.6756421
 184.4189548  94.2927877 139.6302164 185.8095354  94.6847619 140.6445471
 184.4670479  96.4341915 141.8145017 183.0647292  96.0407877 140.8252742
 184.3735892  96.6188654 138.7643420 185.7660986  97.0302493 139.7673350
 184.4237766  98.8197647 140.8987785 183.0280217  98.4043078 139.8993739
 185.7289208  99.4014951 138.8453196 184.2330697 100.3468999 138.9533585
 184.3328333  98.9738719 137.8373785 184.8010542  88.2829619 144.0061353
 183.2586585  89.1635741 143.8157896 184.2116181  91.0840562 145.1131875
 185.7468946  90.2227973 145.2652741 184.5087371  88.4300534 146.5570741
 183.0284861  89.3880040 146.3965076 184.1885385  91.3413520 147.4744737
 185.6475863  90.3674758 147.6541921 184.3966746  88.7708178 149.1248960
 182.9419449  89.7631222 148.9488867 184.1681845  91.7322743 149.9036315
 185.6184190  90.7448191 150.0791142 184.3877463  89.2091405 151.6271609
 182.9360939  90.1983802 151.4536289 185.6163060  91.1736533 152.5801465
 184.1679238  90.7802630 153.5242081 184.1517895  92.1624462 152.4135654
 184.7280187  89.4842503 140.4953470 183.2299227  89.2052412 141.3949758
 185.7067693  87.4209571 140.9992213 184.1810396  87.2149919 140.3868611
 184.8400450  86.8257473 143.3648266 184.5777210  85.6101249 142.1814306
 182.3925027  87.6714618 142.8499114 182.5358803  86.1026479 143.6264419
 182.4223367  84.9531193 141.4587990 182.4119557  86.4767440 140.5867341
 180.2592828  87.1190481 141.5253643 180.1804417  85.5899961 142.4177257
 180.4751578  84.3416438 140.2343392 180.5207045  85.8741868 139.3687974
 178.1618941  84.8721213 141.0305216 178.2811443  84.8380585 139.2585859
 178.2141053  86.3943538 140.1113582 192.7460000  82.6040000 134.8990000
 182.3310000  94.5680000 144.1960000 188.5988435  97.0712258 145.1348018
 187.0696208  97.0803423 145.1348476 186.5049748  95.6583454 145.1339514
 184.9767844  95.6649019 145.1333803 184.4052430  94.2650000 145.1330000
 183.0510000  94.2650000 145.1330000 185.0554269  93.2327992 145.1324242
 182.1440000  95.1690000 142.3380000 181.7729627  95.1686082 143.4714083
 181.7699482  94.5526945 145.1354991 188.9680424  96.5368952 146.0182020
 188.9687372  96.5359623 144.2532715 186.7062267  97.6199011 144.2524328
 186.7051634  97.6199044 146.0173625 186.8711151  95.1144740 146.0129224
 186.8710361  95.1159952 144.2527225 184.6095586  96.1833983 144.2411832
 184.6097875  96.1828719 146.0266810 182.6587631  95.1583881 145.1330000
 191.2770000  85.4030000 158.4400000 192.7267774  92.5042005 159.8661438
 191.2176515  92.4187848 159.7792115 190.6579757  91.5156163 160.8702000
 189.1592477  91.4600210 160.7033451 188.5401405  90.5932373 161.7763042
 187.0338159  90.7251808 161.7017451 186.4160844  89.9240000 160.5530000
 184.8700000  89.9240000 160.5530000 184.2626962  91.3507263 160.5530000
 184.7605752  92.2772788 159.4404628 184.2058467  93.6907891 159.6630727
 184.7133630  94.6542987 158.5950697 184.1614345  96.0654171 158.8158251
 184.6699850  97.0056350 157.7206482 184.1232930  98.4207717 157.8977523
 184.6358685  99.3381607 156.7998112 184.3465855  89.2741111 161.9000708
 184.6654433  90.0920878 163.1444143 184.1233105  89.4524234 164.4188002
 184.5513195  90.3163543 165.5989314 184.0350424  89.7950436 166.9335243
 184.5229724  90.7088103 168.0572741 184.0335094  90.2300682 169.4144483
 184.5213657  91.1410515 170.5283876 184.3151881  89.0533906 159.3866574
 184.6687005  87.5675280 159.2764780 184.2749989  86.6328091 160.4249994
 182.7669551  86.6481187 160.6799279 182.0924240  85.9982166 159.4894070
 180.5840011  86.0689084 159.4980254 180.1038935  85.3733068 158.2265470
 178.5958128  85.3700083 158.1344067 190.8150000  85.6710000 157.4850000
 190.7380455  85.3003397 157.4926543 190.6555611  84.9684972 159.2325043
 193.0219754  92.9056320 160.8418291 193.1621727  91.5022427 159.7764485
 190.9149720  92.0316836 158.7990912 190.7758237  93.4184455 159.8788742
 190.9212239  91.9088512 161.8572884 191.0864698  90.5067144 160.7909043
 188.9023187  91.0747845 159.7165598 188.7458951  92.4780287 160.7743450
 188.8742658  90.9312563 162.7625970 188.8543866  89.5477500 161.6725358
 186.7447068  91.7809578 161.6565596 186.7216052  90.3833389 162.6688530
 186.7363425  88.8809625 160.6023618 186.7303881  90.3264737 159.5852644
 184.5092357  91.8196140 161.4954736 183.1743203  91.2366983 160.4992458
 184.4400002  91.9247926 158.4544638 185.8537742  92.3335952 159.4319588
 184.5099731  94.0505757 160.6541851 183.1095120  93.6612478 159.6506421
 184.4189548  94.2927877 157.6052164 185.8095354  94.6847619 158.6195471
 184.4670479  96.4341915 159.7895017 183.0647292  96.0407877 158.8002742
 184.3735892  96.6188654 156.7393420 185.7660986  97.0302493 157.7423350
 184.4237766  98.8197647 158.8737785 183.0280217  98.4043078 157.8743739
 185.7289208  99.4014951 156.8203196 184.2330697 100.3468999 156.9283585
 184.3328333  98.9738719 155.8123785 184.8010542  88.2829619 161.9811353
 183.2586585  89.1635741 161.7907896 184.2116181  91.0840562 163.0881875
 185.7468946  90.2227973 163.2402741 184.5087371  88.4300534 164.5320741
 183.0284861  89.3880040 164.3715076 184.1885385  91.3413520 165.4494737
 185.6475863  90.3674758 165.6291921 184.3966746  88.7708178 167.0998960
 182.9419449  89.7631222 166.9238867 184.1681845  91.7322743 167.8786315
 185.6184190  90.7448191 168.0541142 184.3877463  89.2091405 169.6021609
 182.9360939  90.1983802 169.4286289 185.6163060  91.1736533 170.5551465
 184.1679238  90.7802630 171.4992081 184.1517895  92.1624462 170.3885654
 184.7280187  89.4842503 158.4703470 183.2299227  89.2052412 159.3699758
 185.7067693  87.4209571 158.9742213 184.1810396  87.2149919 158.3618611
 184.8400450  86.8257473 161.3398266 184.5777210  85.6101249 160.1564306
 182.3925027  87.6714618 160.8249114 182.5358803  86.1026479 161.6014419
 182.4223367  84.9531193 159.4337990 182.4119557  86.4767440 158.5617341
 180.2592828  87.1190481 159.5003643 180.1804417  85.5899961 160.3927257
 180.4751578  84.3416438 158.2093392 180.5207045  85.8741868 157.3437974
 178.1618941  84.8721213 159.0055216 178.2811443  84.8380585 157.2335859
 178.2141053  86.3943538 158.0863582 192.7460000  82.6040000 152.8740000
 182.3310000  94.5680000 162.1710000 188.5988435  97.0712258 163.1098018
 187.0696208  97.0803423 163.1098476 186.5049748  95.6583454 163.1089514
 184.9767844  95.6649019 163.1083803 184.4052430  94.2650000 163.1080000
 183.0510000  94.2650000 163.1080000 185.0554269  93.2327992 163.1074242
 182.1440000  95.1690000 160.3130000 181.7729627  95.1686082 161.4464083
 181.7699482  94.5526945 163.1104991 188.9680424  96.5368952 163.9932020
 188.9687372  96.5359623 162.2282715 186.7062267  97.6199011 162.2274328
 186.7051634  97.6199044 163.9923625 186.8711151  95.1144740 163.9879224
 186.8710361  95.1159952 162.2277225 184.6095586  96.1833983 162.2161832
 184.6097875  96.1828719 164.0016810 182.6587631  95.1583881 163.1080000
 191.2770000  85.4030000 176.4150000 192.7267774  92.5042005 177.8411438
 191.2176515  92.4187848 177.7542115 190.6579757  91.5156163 178.8452000
 189.1592477  91.4600210 178.6783451 188.5401405  90.5932373 179.7513042
 187.0338159  90.7251808 179.6767451 186.4160844  89.9240000 178.5280000
 184.8700000  89.9240000 178.5280000 184.2626962  91.3507263 178.5280000
 184.7605752  92.2772788 177.4154628 184.2058467  93.6907891 177.6380727
 184.7133630  94.6542987 176.5700697 184.1614345  96.0654171 176.7908251
 184.6699850  97.0056350 175.6956482 184.1232930  98.4207717 175.8727523
 184.6358685  99.3381607 174.7748112 184.3465855  89.2741111 179.8750708
 184.6654433  90.0920878 181.1194143 184.1233105  89.4524234 182.3938002
 184.5513195  90.3163543 183.5739314 184.0350424  89.7950436 184.9085243
 184.5229724  90.7088103 186.0322741 184.0335094  90.2300682 187.3894483
 184.5213657  91.1410515 188.5033876 184.3151881  89.0533906 177.3616574
 184.6687005  87.5675280 177.2514780 184.2749989  86.6328091 178.3999994
 182.7669551  86.6481187 178.6549279 182.0924240  85.9982166 177.4644070
 180.5840011  86.0689084 177.4730254 180.1038935  85.3733068 176.2015470
 178.5958128  85.3700083 176.1094067 190.8150000  85.6710000 175.4600000
 190.7380455  85.3003397 175.4676543 190.6555611  84.9684972 177.2075043
 193.0219754  92.9056320 178.8168291 193.1621727  91.5022427 177.7514485
 190.9149720  92.0316836 176.7740912 190.7758237  93.4184455 177.8538742
 190.9212239  91.9088512 179.8322884 191.0864698  90.5067144 178.7659043
 188.9023187  91.0747845 177.6915598 188.7458951  92.4780287 178.7493450
 188.8742658  90.9312563 180.7375970 188.8543866  89.5477500 179.6475358
 186.7447068  91.7809578 179.6315596 186.7216052  90.3833389 180.6438530
 186.7363425  88.8809625 178.5773618 186.7303881  90.3264737 177.5602644
 184.5092357  91.8196140 179.4704736 183.1743203  91.2366983 178.4742458
 184.4400002  91.9247926 176.4294638 185.8537742  92.3335952 177.4069588
 184.5099731  94.0505757 178.6291851 183.1095120  93.6612478 177.6256421
 184.4189548  94.2927877 175.5802164 185.8095354  94.6847619 176.5945471
 184.4670479  96.4341915 177.7645017 183.0647292  96.0407877 176.7752742
 184.3735892  96.6188654 174.7143420 185.7660986  97.0302493 175.7173350
 184.4237766  98.8197647 176.8487785 183.0280217  98.4043078 175.8493739
 185.7289208  99.4014951 174.7953196 184.2330697 100.3468999 174.9033585
 184.3328333  98.9738719 173.7873785 184.8010542  88.2829619 179.9561353
 183.2586585  89.1635741 179.7657896 184.2116181  91.0840562 181.0631875
 185.7468946  90.2227973 181.2152741 184.5087371  88.4300534 182.5070741
 183.0284861  89.3880040 182.3465076 184.1885385  91.3413520 183.4244737
 185.6475863  90.3674758 183.6041921 184.3966746  88.7708178 185.0748960
 182.9419449  89.7631222 184.8988867 184.1681845  91.7322743 185.8536315
 185.6184190  90.7448191 186.0291142 184.3877463  89.2091405 187.5771609
 182.9360939  90.1983802 187.4036289 185.6163060  91.1736533 188.5301465
 184.1679238  90.7802630 189.4742081 184.1517895  92.1624462 188.3635654
 184.7280187  89.4842503 176.4453470 183.2299227  89.2052412 177.3449758
 185.7067693  87.4209571 176.9492213 184.1810396  87.2149919 176.3368611
 184.8400450  86.8257473 179.3148266 184.5777210  85.6101249 178.1314306
 182.3925027  87.6714618 178.7999114 182.5358803  86.1026479 179.5764419
 182.4223367  84.9531193 177.4087990 182.4119557  86.4767440 176.5367341
 180.2592828  87.1190481 177.4753643 180.1804417  85.5899961 178.3677257
 180.4751578  84.3416438 176.1843392 180.5207045  85.8741868 175.3187974
 178.1618941  84.8721213 176.9805216 178.2811443  84.8380585 175.2085859
 178.2141053  86.3943538 176.0613582 192.7460000  82.6040000 170.8490000
 182.3310000  94.5680000 180.1460000 188.5988435  97.0712258 181.0848018
 187.0696208  97.0803423 181.0848476 186.5049748  95.6583454 181.0839514
 184.9767844  95.6649019 181.0833803 184.4052430  94.2650000 181.0830000
 183.0510000  94.2650000 181.0830000 185.0554269  93.2327992 181.0824242
 182.1440000  95.1690000 178.2880000 181.7729627  95.1686082 179.4214083
 181.7699482  94.5526945 181.0854991 188.9680424  96.5368952 181.9682020
 188.9687372  96.5359623 180.2032715 186.7062267  97.6199011 180.2024328
 186.7051634  97.6199044 181.9673625 186.8711151  95.1144740 181.9629224
 186.8710361  95.1159952 180.2027225 184.6095586  96.1833983 180.1911832
 184.6097875  96.1828719 181.9766810 182.6587631  95.1583881 181.0830000
 191.2770000 104.0060000  68.5660000 192.7267774 111.1072005  69.9921438
 191.2176515 111.0217848  69.9052115 190.6579757 110.1186163  70.9962000
 189.1592477 110.0630210  70.8293451 188.5401405 109.1962373  71.9023042
 187.0338159 109.3281808  71.8277451 186.4160844 108.5270000  70.6790000
 184.8700000 108.5270000  70.6790000 184.2626962 109.9537263  70.6790000
 184.7605752 110.8802788  69.5664628 184.2058467 112.2937891  69.7890727
 184.7133630 113.2572987  68.7210697 184.1614345 114.6684171  68.9418251
 184.6699850 115.6086350  67.8466482 184.1232930 117.0237717  68.0237523
 184.6358685 117.9411607  66.9258112 184.3465855 107.8771111  72.0260708
 184.6654433 108.6950878  73.2704143 184.1233105 108.0554234  74.5448002
 184.5513195 108.9193543  75.7249314 184.0350424 108.3980436  77.0595243
 184.5229724 109.3118103  78.1832741 184.0335094 108.8330682  79.5404483
 184.5213657 109.7440515  80.6543876 184.3151881 107.6563906  69.5126574
 184.6687005 106.1705280  69.4024780 184.2749989 105.2358091  70.5509994
 182.7669551 105.2511187  70.8059279 182.0924240 104.6012166  69.6154070
 180.5840011 104.6719084  69.6240254 180.1038935 103.9763068  68.3525470
 178.5958128 103.9730083  68.2604067 190.8150000 104.2740000  67.6110000
 190.7380455 103.9033397  67.6186543 190.6555611 103.5714972  69.3585043
 193.0219754 111.5086320  70.9678291 193.1621727 110.1052427  69.9024485
 190.9149720 110.6346836  68.9250912 190.7758237 112.0214455  70.0048742
 190.9212239 110.5118512  71.9832884 191.0864698 109.1097144  70.9169043
 188.9023187 109.6777845  69.8425598 188.7458951 111.0810287  70.9003450
 188.8742658 109.5342563  72.8885970 188.8543866 108.1507500  71.7985358
 186.7447068 110.3839578  71.7825596 186.7216052 108.9863389  72.7948530
 186.7363425 107.4839625  70.7283618 186.7303881 108.9294737  69.7112644
 184.5092357 110.4226140  71.6214736 183.1743203 109.8396983  70.6252458
 184.4400002 110.5277926  68.5804638 185.8537742 110.9365952  69.5579588
 184.5099731 112.6535757  70.7801851 183.1095120 112.2642478  69.7766421
 184.4189548 112.8957877  67.7312164 185.8095354 113.2877619  68.7455471
 184.4670479 115.0371915  69.9155017 183.0647292 114.6437877  68.9262742
 184.3735892 115.2218654  66.8653420 185.7660986 115.6332493  67.8683350
 184.4237766 117.4227647  68.9997785 183.0280217 117.0073078  68.0003739
 185.7289208 118.0044951  66.9463196 184.2330697 118.9498999  67.0543585
 184.3328333 117.5768719  65.9383785 184.8010542 106.8859619  72.1071353
 183.2586585 107.7665741  71.9167896 184.2116181 109.6870562  73.2141875
 185.7468946 108.8257973  73.3662741 184.5087371 107.0330534  74.6580741
 183.0284861 107.9910040  74.4975076 184.1885385 109.9443520  75.5754737
 185.6475863 108.9704758  75.7551921 184.3966746 107.3738178  77.2258960
 182.9419449 108.3661222  77.0498867 184.1681845 110.3352743  78.0046315
 185.6184190 109.3478191  78.1801142 184.3877463 107.8121405  79.7281609
 182.9360939 108.8013802  79.5546289 185.6163060 109.7766533  80.6811465
 184.1679238 109.3832630  81.6252081 184.1517895 110.7654462  80.5145654
 184.7280187 108.0872503  68.5963470 183.2299227 107.8082412  69.4959758
 185.7067693 106.0239571  69.1002213 184.1810396 105.8179919  68.4878611
 184.8400450 105.4287473  71.4658266 184.5777210 104.2131249  70.2824306
 182.3925027 106.2744618  70.9509114 182.5358803 104.7056479  71.7274419
 182.4223367 103.5561193  69.5597990 182.4119557 105.0797440  68.6877341
 180.2592828 105.7220481  69.6263643 180.1804417 104.1929961  70.5187257
 180.4751578 102.9446438  68.3353392 180.5207045 104.4771868  67.4697974
 178.1618941 103.4751213  69.1315216 178.2811443 103.4410585  67.3595859
 178.2141053 104.9973538  68.2123582 192.7460000 101.2070000  63.0000000
 182.3310000 113.1710000  72.2970000 188.5988435 115.6742258  73.2358018
 187.0696208 115.6833423  73.2358476 186.5049748 114.2613454  73.2349514
 184.9767844 114.2679019  73.2343803 184.4052430 112.8680000  73.2340000
 183.0510000 112.8680000  73.2340000 185.0554269 111.8357992  73.2334242
 182.1440000 113.7720000  70.4390000 181.7729627 113.7716082  71.5724083
 181.7699482 113.1556945  73.2364991 188.9680424 115.1398952  74.1192020
 188.9687372 115.1389623  72.3542715 186.7062267 116.2229011  72.3534328
 186.7051634 116.2229044  74.1183625 186.8711151 113.7174740  74.1139224
 186.8710361 113.7189952  72.3537225 184.6095586 114.7863983  72.3421832
 184.6097875 114.7858719  74.1276810 182.6587631 113.7613881  73.2340000
 191.2770000 104.0060000  86.5410000 192.7267774 111.1072005  87.9671438
 191.2176515 111.0217848  87.8802115 190.6579757 110.1186163  88.9712000
 189.1592477 110.0630210  88.8043451 188.5401405 109.1962373  89.8773042
 187.0338159 109.3281808  89.8027451 186.4160844 108.5270000  88.6540000
 184.8700000 108.5270000  88.6540000 184.2626962 109.9537263  88.6540000
 184.7605752 110.8802788  87.5414628 184.2058467 112.2937891  87.7640727
 184.7133630 113.2572987  86.6960697 184.1614345 114.6684171  86.9168251
 184.6699850 115.6086350  85.8216482 184.1232930 117.0237717  85.9987523
 184.6358685 117.9411607  84.9008112 184.3465855 107.8771111  90.0010708
 184.6654433 108.6950878  91.2454143 184.1233105 108.0554234  92.5198002
 184.5513195 108.9193543  93.6999314 184.0350424 108.3980436  95.0345243
 184.5229724 109.3118103  96.1582741 184.0335094 108.8330682  97.5154483
 184.5213657 109.7440515  98.6293876 184.3151881 107.6563906  87.4876574
 184.6687005 106.1705280  87.3774780 184.2749989 105.2358091  88.5259994
 182.7669551 105.2511187  88.7809279 182.0924240 104.6012166  87.5904070
 180.5840011 104.6719084  87.5990254 180.1038935 103.9763068  86.3275470
 178.5958128 103.9730083  86.2354067 190.8150000 104.2740000  85.5860000
 190.7380455 103.9033397  85.5936543 190.6555611 103.5714972  87.3335043
 193.0219754 111.5086320  88.9428291 193.1621727 110.1052427  87.8774485
 190.9149720 110.6346836  86.9000912 190.7758237 112.0214455  87.9798742
 190.9212239 110.5118512  89.9582884 191.0864698 109.1097144  88.8919043
 188.9023187 109.6777845  87.8175598 188.7458951 111.0810287  88.8753450
 188.8742658 109.5342563  90.8635970 188.8543866 108.1507500  89.7735358
 186.7447068 110.3839578  89.7575596 186.7216052 108.9863389  90.7698530
 186.7363425 107.4839625  88.7033618 186.7303881 108.9294737  87.6862644
 184.5092357 110.4226140  89.5964736 183.1743203 109.8396983  88.6002458
 184.4400002 110.5277926  86.5554638 185.8537742 110.9365952  87.5329588
 184.5099731 112.6535757  88.7551851 183.1095120 112.2642478  87.7516421
 184.4189548 112.8957877  85.7062164 185.8095354 113.2877619  86.7205471
 184.4670479 115.0371915  87.8905017 183.0647292 114.6437877  86.9012742
 184.3735892 115.2218654  84.8403420 185.7660986 115.6332493  85.8433350
 184.4237766 117.4227647  86.9747785 183.0280217 117.0073078  85.9753739
 185.7289208 118.0044951  84.9213196 184.2330697 118.9498999  85.0293585
 184.3328333 117.5768719  83.9133785 184.8010542 106.8859619  90.0821353
 183.2586585 107.7665741  89.8917896 184.2116181 109.6870562  91.1891875
 185.7468946 108.8257973  91.3412741 184.5087371 107.0330534  92.6330741
 183.0284861 107.9910040  92.4725076 184.1885385 109.9443520  93.5504737
 185.6475863 108.9704758  93.7301921 184.3966746 107.3738178  95.2008960
 182.9419449 108.3661222  95.0248867 184.1681845 110.3352743  95.9796315
 185.6184190 109.3478191  96.1551142 184.3877463 107.8121405  97.7031609
 182.9360939 108.8013802  97.5296289 185.6163060 109.7766533  98.6561465
 184.1679238 109.3832630  99.6002081 184.1517895 110.7654462  98.4895654
 184.7280187 108.0872503  86.5713470 183.2299227 107.8082412  87.4709758
 185.7067693 106.0239571  87.0752213 184.1810396 105.8179919  86.4628611
 184.8400450 105.4287473  89.4408266 184.5777210 104.2131249  88.2574306
 182.3925027 106.2744618  88.9259114 182.5358803 104.7056479  89.7024419
 182.4223367 103.5561193  87.5347990 182.4119557 105.0797440  86.6627341
 180.2592828 105.7220481  87.6013643 180.1804417 104.1929961  88.4937257
 180.4751578 102.9446438  86.3103392 180.5207045 104.4771868  85.4447974
 178.1618941 103.4751213  87.1065216 178.2811443 103.4410585  85.3345859
 178.2141053 104.9973538  86.1873582 192.7460000 101.2070000  80.9750000
 182.3310000 113.1710000  90.2720000 188.5988435 115.6742258  91.2108018
 187.0696208 115.6833423  91.2108476 186.5049748 114.2613454  91.2099514
 184.9767844 114.2679019  91.2093803 184.4052430 112.8680000  91.2090000
 183.0510000 112.8680000  91.2090000 185.0554269 111.8357992  91.2084242
 182.1440000 113.7720000  88.4140000 181.7729627 113.7716082  89.5474083
 181.7699482 113.1556945  91.2114991 188.9680424 115.1398952  92.0942020
 188.9687372 115.1389623  90.3292715 186.7062267 116.2229011  90.3284328
 186.7051634 116.2229044  92.0933625 186.8711151 113.7174740  92.0889224
 186.8710361 113.7189952  90.3287225 184.6095586 114.7863983  90.3171832
 184.6097875 114.7858719  92.1026810 182.6587631 113.7613881  91.2090000
 191.2770000 104.0060000 104.5160000 192.7267774 111.1072005 105.9421438
 191.2176515 111.0217848 105.8552115 190.6579757 110.1186163 106.9462000
 189.1592477 110.0630210 106.7793451 188.5401405 109.1962373 107.8523042
 187.0338159 109.3281808 107.7777451 186.4160844 108.5270000 106.6290000
 184.8700000 108.5270000 106.6290000 184.2626962 109.9537263 106.6290000
 184.7605752 110.8802788 105.5164628 184.2058467 112.2937891 105.7390727
 184.7133630 113.2572987 104.6710697 184.1614345 114.6684171 104.8918251
 184.6699850 115.6086350 103.7966482 184.1232930 117.0237717 103.9737523
 184.6358685 117.9411607 102.8758112 184.3465855 107.8771111 107.9760708
 184.6654433 108.6950878 109.2204143 184.1233105 108.0554234 110.4948002
 184.5513195 108.9193543 111.6749314 184.0350424 108.3980436 113.0095243
 184.5229724 109.3118103 114.1332741 184.0335094 108.8330682 115.4904483
 184.5213657 109.7440515 116.6043876 184.3151881 107.6563906 105.4626574
 184.6687005 106.1705280 105.3524780 184.2749989 105.2358091 106.5009994
 182.7669551 105.2511187 106.7559279 182.0924240 104.6012166 105.5654070
 180.5840011 104.6719084 105.5740254 180.1038935 103.9763068 104.3025470
 178.5958128 103.9730083 104.2104067 190.8150000 104.2740000 103.5610000
 190.7380455 103.9033397 103.5686543 190.6555611 103.5714972 105.3085043
 193.0219754 111.5086320 106.9178291 193.1621727 110.1052427 105.8524485
 190.9149720 110.6346836 104.8750912 190.7758237 112.0214455 105.9548742
 190.9212239 110.5118512 107.9332884 191.0864698 109.1097144 106.8669043
 188.9023187 109.6777845 105.7925598 188.7458951 111.0810287 106.8503450
 188.8742658 109.5342563 108.8385970 188.8543866 108.1507500 107.7485358
 186.7447068 110.3839578 107.7325596 186.7216052 108.9863389 108.7448530
 186.7363425 107.4839625 106.6783618 186.7303881 108.9294737 105.6612644
 184.5092357 110.4226140 107.5714736 183.1743203 109.8396983 106.5752458
 184.4400002 110.5277926 104.5304638 185.8537742 110.9365952 105.5079588
 184.5099731 112.6535757 106.7301851 183.1095120 112.2642478 105.7266421
 184.4189548 112.8957877 103.6812164 185.8095354 113.2877619 104.6955471
 184.4670479 115.0371915 105.8655017 183.0647292 114.6437877 104.8762742
 184.3735892 115.2218654 102.8153420 185.7660986 115.6332493 103.8183350
 184.4237766 117.4227647 104.9497785 183.0280217 117.0073078 103.9503739
 185.7289208 118.0044951 102.8963196 184.2330697 118.9498999 103.0043585
 184.3328333 117.5768719 101.8883785 184.8010542 106.8859619 108.0571353
 183.2586585 107.7665741 107.8667896 184.2116181 109.6870562 109.1641875
 185.7468946 108.8257973 109.3162741 184.5087371 107.0330534 110.6080741
 183.0284861 107.9910040 110.4475076 184.1885385 109.9443520 111.5254737
 185.6475863 108.9704758 111.7051921 184.3966746 107.3738178 113.1758960
 182.9419449 108.3661222 112.9998867 184.1681845 110.3352743 113.9546315
 185.6184190 109.3478191 114.1301142 184.3877463 107.8121405 115.6781609
 182.9360939 108.8013802 115.5046289 185.6163060 109.7766533 116.6311465
 184.1679238 109.3832630 117.5752081 184.1517895 110.7654462 116.4645654
 184.7280187 108.0872503 104.5463470 183.2299227 107.8082412 105.4459758
 185.7067693 106.0239571 105.0502213 184.1810396 105.8179919 104.4378611
 184.8400450 105.4287473 107.4158266 184.5777210 104.2131249 106.2324306
 182.3925027 106.2744618 106.9009114 182.5358803 104.7056479 107.6774419
 182.4223367 103.5561193 105.5097990 182.4119557 105.0797440 104.6377341
 180.2592828 105.7220481 105.5763643 180.1804417 104.1929961 106.4687257
 180.4751578 102.9446438 104.2853392 180.5207045 104.4771868 103.4197974
 178.1618941 103.4751213 105.0815216 178.2811443 103.4410585 103.3095859
 178.2141053 104.9973538 104.1623582 192.7460000 101.2070000  98.9500000
 182.3310000 113.1710000 108.2470000 188.5988435 115.6742258 109.1858018
 187.0696208 115.6833423 109.1858476 186.5049748 114.2613454 109.1849514
 184.9767844 114.2679019 109.1843803 184.4052430 112.8680000 109.1840000
 183.0510000 112.8680000 109.1840000 185.0554269 111.8357992 109.1834242
 182.1440000 113.7720000 106.3890000 181.7729627 113.7716082 107.5224083
 181.7699482 113.1556945 109.1864991 188.9680424 115.1398952 110.0692020
 188.9687372 115.1389623 108.3042715 186.7062267 116.2229011 108.3034328
 186.7051634 116.2229044 110.0683625 186.8711151 113.7174740 110.0639224
 186.8710361 113.7189952 108.3037225 184.6095586 114.7863983 108.2921832
 184.6097875 114.7858719 110.0776810 182.6587631 113.7613881 109.1840000
 191.2770000 104.0060000 122.4900000 192.7267774 111.1072005 123.9161438
 191.2176515 111.0217848 123.8292115 190.6579757 110.1186163 124.9202000
 189.1592477 110.0630210 124.7533451 188.5401405 109.1962373 125.8263042
 187.0338159 109.3281808 125.7517451 186.4160844 108.5270000 124.6030000
 184.8700000 108.5270000 124.6030000 184.2626962 109.9537263 124.6030000
 184.7605752 110.8802788 123.4904628 184.2058467 112.2937891 123.7130727
 184.7133630 113.2572987 122.6450697 184.1614345 114.6684171 122.8658251
 184.6699850 115.6086350 121.7706482 184.1232930 117.0237717 121.9477523
 184.6358685 117.9411607 120.8498112 184.3465855 107.8771111 125.9500708
 184.6654433 108.6950878 127.1944143 184.1233105 108.0554234 128.4688002
 184.5513195 108.9193543 129.6489314 184.0350424 108.3980436 130.9835243
 184.5229724 109.3118103 132.1072741 184.0335094 108.8330682 133.4644483
 184.5213657 109.7440515 134.5783876 184.3151881 107.6563906 123.4366574
 184.6687005 106.1705280 123.3264780 184.2749989 105.2358091 124.4749994
 182.7669551 105.2511187 124.7299279 182.0924240 104.6012166 123.5394070
 180.5840011 104.6719084 123.5480254 180.1038935 103.9763068 122.2765470
 178.5958128 103.9730083 122.1844067 190.8150000 104.2740000 121.5350000
 190.7380455 103.9033397 121.5426543 190.6555611 103.5714972 123.2825043
 193.0219754 111.5086320 124.8918291 193.1621727 110.1052427 123.8264485
 190.9149720 110.6346836 122.8490912 190.7758237 112.0214455 123.9288742
 190.9212239 110.5118512 125.9072884 191.0864698 109.1097144 124.8409043
 188.9023187 109.6777845 123.7665598 188.7458951 111.0810287 124.8243450
 188.8742658 109.5342563 126.8125970 188.8543866 108.1507500 125.7225358
 186.7447068 110.3839578 125.7065596 186.7216052 108.9863389 126.7188530
 186.7363425 107.4839625 124.6523618 186.7303881 108.9294737 123.6352644
 184.5092357 110.4226140 125.5454736 183.1743203 109.8396983 124.5492458
 184.4400002 110.5277926 122.5044638 185.8537742 110.9365952 123.4819588
 184.5099731 112.6535757 124.7041851 183.1095120 112.2642478 123.7006421
 184.4189548 112.8957877 121.6552164 185.8095354 113.2877619 122.6695471
 184.4670479 115.0371915 123.8395017 183.0647292 114.6437877 122.8502742
 184.3735892 115.2218654 120.7893420 185.7660986 115.6332493 121.7923350
 184.4237766 117.4227647 122.9237785 183.0280217 117.0073078 121.9243739
 185.7289208 118.0044951 120.8703196 184.2330697 118.9498999 120.9783585
 184.3328333 117.5768719 119.8623785 184.8010542 106.8859619 126.0311353
 183.2586585 107.7665741 125.8407896 184.2116181 109.6870562 127.1381875
 185.7468946 108.8257973 127.2902741 184.5087371 107.0330534 128.5820741
 183.0284861 107.9910040 128.4215076 184.1885385 109.9443520 129.4994737
 185.6475863 108.9704758 129.6791921 184.3966746 107.3738178 131.1498960
 182.9419449 108.3661222 130.9738867 184.1681845 110.3352743 131.9286315
 185.6184190 109.3478191 132.1041142 184.3877463 107.8121405 133.6521609
 182.9360939 108.8013802 133.4786289 185.6163060 109.7766533 134.6051465
 184.1679238 109.3832630 135.5492081 184.1517895 110.7654462 134.4385654
 184.7280187 108.0872503 122.5203470 183.2299227 107.8082412 123.4199758
 185.7067693 106.0239571 123.0242213 184.1810396 105.8179919 122.4118611
 184.8400450 105.4287473 125.3898266 184.5777210 104.2131249 124.2064306
 182.3925027 106.2744618 124.8749114 182.5358803 104.7056479 125.6514419
 182.4223367 103.5561193 123.4837990 182.4119557 105.0797440 122.6117341
 180.2592828 105.7220481 123.5503643 180.1804417 104.1929961 124.4427257
 180.4751578 102.9446438 122.2593392 180.5207045 104.4771868 121.3937974
 178.1618941 103.4751213 123.0555216 178.2811443 103.4410585 121.2835859
 178.2141053 104.9973538 122.1363582 192.7460000 101.2070000 116.9240000
 182.3310000 113.1710000 126.2210000 188.5988435 115.6742258 127.1598018
 187.0696208 115.6833423 127.1598476 186.5049748 114.2613454 127.1589514
 184.9767844 114.2679019 127.1583803 184.4052430 112.8680000 127.1580000
 183.0510000 112.8680000 127.1580000 185.0554269 111.8357992 127.1574242
 182.1440000 113.7720000 124.3630000 181.7729627 113.7716082 125.4964083
 181.7699482 113.1556945 127.1604991 188.9680424 115.1398952 128.0432020
 188.9687372 115.1389623 126.2782715 186.7062267 116.2229011 126.2774328
 186.7051634 116.2229044 128.0423625 186.8711151 113.7174740 128.0379224
 186.8710361 113.7189952 126.2777225 184.6095586 114.7863983 126.2661832
 184.6097875 114.7858719 128.0516810 182.6587631 113.7613881 127.1580000
 191.2770000 104.0060000 140.4650000 192.7267774 111.1072005 141.8911438
 191.2176515 111.0217848 141.8042115 190.6579757 110.1186163 142.8952000
 189.1592477 110.0630210 142.7283451 188.5401405 109.1962373 143.8013042
 187.0338159 109.3281808 143.7267451 186.4160844 108.5270000 142.5780000
 184.8700000 108.5270000 142.5780000 184.2626962 109.9537263 142.5780000
 184.7605752 110.8802788 141.4654628 184.2058467 112.2937891 141.6880727
 184.7133630 113.2572987 140.6200697 184.1614345 114.6684171 140.8408251
 184.6699850 115.6086350 139.7456482 184.1232930 117.0237717 139.9227523
 184.6358685 117.9411607 138.8248112 184.3465855 107.8771111 143.9250708
 184.6654433 108.6950878 145.1694143 184.1233105 108.0554234 146.4438002
 184.5513195 108.9193543 147.6239314 184.0350424 108.3980436 148.9585243
 184.5229724 109.3118103 150.0822741 184.0335094 108.8330682 151.4394483
 184.5213657 109.7440515 152.5533876 184.3151881 107.6563906 141.4116574
 184.6687005 106.1705280 141.3014780 184.2749989 105.2358091 142.4499994
 182.7669551 105.2511187 142.7049279 182.0924240 104.6012166 141.5144070
 180.5840011 104.6719084 141.5230254 180.1038935 103.9763068 140.2515470
 178.5958128 103.9730083 140.1594067 190.8150000 104.2740000 139.5100000
 190.7380455 103.9033397 139.5176543 190.6555611 103.5714972 141.2575043
 193.0219754 111.5086320 142.8668291 193.1621727 110.1052427 141.8014485
 190.9149720 110.6346836 140.8240912 190.7758237 112.0214455 141.9038742
 190.9212239 110.5118512 143.8822884 191.0864698 109.1097144 142.8159043
 188.9023187 109.6777845 141.7415598 188.7458951 111.0810287 142.7993450
 188.8742658 109.5342563 144.7875970 188.8543866 108.1507500 143.6975358
 186.7447068 110.3839578 143.6815596 186.7216052 108.9863389 144.6938530
 186.7363425 107.4839625 142.6273618 186.7303881 108.9294737 141.6102644
 184.5092357 110.4226140 143.5204736 183.1743203 109.8396983 142.5242458
 184.4400002 110.5277926 140.4794638 185.8537742 110.9365952 141.4569588
 184.5099731 112.6535757 142.6791851 183.1095120 112.2642478 141.6756421
 184.4189548 112.8957877 139.6302164 185.8095354 113.2877619 140.6445471
 184.4670479 115.0371915 141.8145017 183.0647292 114.6437877 140.8252742
 184.3735892 115.2218654 138.7643420 185.7660986 115.6332493 139.7673350
 184.4237766 117.4227647 140.8987785 183.0280217 117.0073078 139.8993739
 185.7289208 118.0044951 138.8453196 184.2330697 118.9498999 138.9533585
 184.3328333 117.5768719 137.8373785 184.8010542 106.8859619 144.0061353
 183.2586585 107.7665741 143.8157896 184.2116181 109.6870562 145.1131875
 185.7468946 108.8257973 145.2652741 184.5087371 107.0330534 146.5570741
 183.0284861 107.9910040 146.3965076 184.1885385 109.9443520 147.4744737
 185.6475863 108.9704758 147.6541921 184.3966746 107.3738178 149.1248960
 182.9419449 108.3661222 148.9488867 184.1681845 110.3352743 149.9036315
 185.6184190 109.3478191 150.0791142 184.3877463 107.8121405 151.6271609
 182.9360939 108.8013802 151.4536289 185.6163060 109.7766533 152.5801465
 184.1679238 109.3832630 153.5242081 184.1517895 110.7654462 152.4135654
 184.7280187 108.0872503 140.4953470 183.2299227 107.8082412 141.3949758
 185.7067693 106.0239571 140.9992213 184.1810396 105.8179919 140.3868611
 184.8400450 105.4287473 143.3648266 184.5777210 104.2131249 142.1814306
 182.3925027 106.2744618 142.8499114 182.5358803 104.7056479 143.6264419
 182.4223367 103.5561193 141.4587990 182.4119557 105.0797440 140.5867341
 180.2592828 105.7220481 141.5253643 180.1804417 104.1929961 142.4177257
 180.4751578 102.9446438 140.2343392 180.5207045 104.4771868 139.3687974
 178.1618941 103.4751213 141.0305216 178.2811443 103.4410585 139.2585859
 178.2141053 104.9973538 140.1113582 192.7460000 101.2070000 134.8990000
 182.3310000 113.1710000 144.1960000 188.5988435 115.6742258 145.1348018
 187.0696208 115.6833423 145.1348476 186.5049748 114.2613454 145.1339514
 184.9767844 114.2679019 145.1333803 184.4052430 112.8680000 145.1330000
 183.0510000 112.8680000 145.1330000 185.0554269 111.8357992 145.1324242
 182.1440000 113.7720000 142.3380000 181.7729627 113.7716082 143.4714083
 181.7699482 113.1556945 145.1354991 188.9680424 115.1398952 146.0182020
 188.9687372 115.1389623 144.2532715 186.7062267 116.2229011 144.2524328
 186.7051634 116.2229044 146.0173625 186.8711151 113.7174740 146.0129224
 186.8710361 113.7189952 144.2527225 184.6095586 114.7863983 144.2411832
 184.6097875 114.7858719 146.0266810 182.6587631 113.7613881 145.1330000
 191.2770000 104.0060000 158.4400000 192.7267774 111.1072005 159.8661438
 191.2176515 111.0217848 159.7792115 190.6579757 110.1186163 160.8702000
 189.1592477 110.0630210 160.7033451 188.5401405 109.1962373 161.7763042
 187.0338159 109.3281808 161.7017451 186.4160844 108.5270000 160.5530000
 184.8700000 108.5270000 160.5530000 184.2626962 109.9537263 160.5530000
 184.7605752 110.8802788 159.4404628 184.2058467 112.2937891 159.6630727
 184.7133630 113.2572987 158.5950697 184.1614345 114.6684171 158.8158251
 184.6699850 115.6086350 157.7206482 184.1232930 117.0237717 157.8977523
 184.6358685 117.9411607 156.7998112 184.3465855 107.8771111 161.9000708
 184.6654433 108.6950878 163.1444143 184.1233105 108.0554234 164.4188002
 184.5513195 108.9193543 165.5989314 184.0350424 108.3980436 166.9335243
 184.5229724 109.3118103 168.0572741 184.0335094 108.8330682 169.4144483
 184.5213657 109.7440515 170.5283876 184.3151881 107.6563906 159.3866574
 184.6687005 106.1705280 159.2764780 184.2749989 105.2358091 160.4249994
 182.7669551 105.2511187 160.6799279 182.0924240 104.6012166 159.4894070
 180.5840011 104.6719084 159.4980254 180.1038935 103.9763068 158.2265470
 178.5958128 103.9730083 158.1344067 190.8150000 104.2740000 157.4850000
 190.7380455 103.9033397 157.4926543 190.6555611 103.5714972 159.2325043
 193.0219754 111.5086320 160.8418291 193.1621727 110.1052427 159.7764485
 190.9149720 110.6346836 158.7990912 190.7758237 112.0214455 159.8788742
 190.9212239 110.5118512 161.8572884 191.0864698 109.1097144 160.7909043
 188.9023187 109.6777845 159.7165598 188.7458951 111.0810287 160.7743450
 188.8742658 109.5342563 162.7625970 188.8543866 108.1507500 161.6725358
 186.7447068 110.3839578 161.6565596 186.7216052 108.9863389 162.6688530
 186.7363425 107.4839625 160.6023618 186.7303881 108.9294737 159.5852644
 184.5092357 110.4226140 161.4954736 183.1743203 109.8396983 160.4992458
 184.4400002 110.5277926 158.4544638 185.8537742 110.9365952 159.4319588
 184.5099731 112.6535757 160.6541851 183.1095120 112.2642478 159.6506421
 184.4189548 112.8957877 157.6052164 185.8095354 113.2877619 158.6195471
 184.4670479 115.0371915 159.7895017 183.0647292 114.6437877 158.8002742
 184.3735892 115.2218654 156.7393420 185.7660986 115.6332493 157.7423350
 184.4237766 117.4227647 158.8737785 183.0280217 117.0073078 157.8743739
 185.7289208 118.0044951 156.8203196 184.2330697 118.9498999 156.9283585
 184.3328333 117.5768719 155.8123785 184.8010542 106.8859619 161.9811353
 183.2586585 107.7665741 161.7907896 184.2116181 109.6870562 163.0881875
 185.7468946 108.8257973 163.2402741 184.5087371 107.0330534 164.5320741
 183.0284861 107.9910040 164.3715076 184.1885385 109.9443520 165.4494737
 185.6475863 108.9704758 165.6291921 184.3966746 107.3738178 167.0998960
 182.9419449 108.3661222 166.9238867 184.1681845 110.3352743 167.8786315
 185.6184190 109.3478191 168.0541142 184.3877463 107.8121405 169.6021609
 182.9360939 108.8013802 169.4286289 185.6163060 109.7766533 170.5551465
 184.1679238 109.3832630 171.4992081 184.1517895 110.7654462 170.3885654
 184.7280187 108.0872503 158.4703470 183.2299227 107.8082412 159.3699758
 185.7067693 106.0239571 158.9742213 184.1810396 105.8179919 158.3618611
 184.8400450 105.4287473 161.3398266 184.5777210 104.2131249 160.1564306
 182.3925027 106.2744618 160.8249114 182.5358803 104.7056479 161.6014419
 182.4223367 103.5561193 159.4337990 182.4119557 105.0797440 158.5617341
 180.2592828 105.7220481 159.5003643 180.1804417 104.1929961 160.3927257
 180.4751578 102.9446438 158.2093392 180.5207045 104.4771868 157.3437974
 178.1618941 103.4751213 159.0055216 178.2811443 103.4410585 157.2335859
 178.2141053 104.9973538 158.0863582 192.7460000 101.2070000 152.8740000
 182.3310000 113.1710000 162.1710000 188.5988435 115.6742258 163.1098018
 187.0696208 115.6833423 163.1098476 186.5049748 114.2613454 163.1089514
 184.9767844 114.2679019 163.1083803 184.4052430 112.8680000 163.1080000
 183.0510000 112.8680000 163.1080000 185.0554269 111.8357992 163.1074242
 182.1440000 113.7720000 160.3130000 181.7729627 113.7716082 161.4464083
 181.7699482 113.1556945 163.1104991 188.9680424 115.1398952 163.9932020
 188.9687372 115.1389623 162.2282715 186.7062267 116.2229011 162.2274328
 186.7051634 116.2229044 163.9923625 186.8711151 113.7174740 163.9879224
 186.8710361 113.7189952 162.2277225 184.6095586 114.7863983 162.2161832
 184.6097875 114.7858719 164.0016810 182.6587631 113.7613881 163.1080000
 191.2770000 104.0060000 176.4150000 192.7267774 111.1072005 177.8411438
 191.2176515 111.0217848 177.7542115 190.6579757 110.1186163 178.8452000
 189.1592477 110.0630210 178.6783451 188.5401405 109.1962373 179.7513042
 187.0338159 109.3281808 179.6767451 186.4160844 108.5270000 178.5280000
 184.8700000 108.5270000 178.5280000 184.2626962 109.9537263 178.5280000
 184.7605752 110.8802788 177.4154628 184.2058467 112.2937891 177.6380727
 184.7133630 113.2572987 176.5700697 184.1614345 114.6684171 176.7908251
 184.6699850 115.6086350 175.6956482 184.1232930 117.0237717 175.8727523
 184.6358685 117.9411607 174.7748112 184.3465855 107.8771111 179.8750708
 184.6654433 108.6950878 181.1194143 184.1233105 108.0554234 182.3938002
 184.5513195 108.9193543 183.5739314 184.0350424 108.3980436 184.9085243
 184.5229724 109.3118103 186.0322741 184.0335094 108.8330682 187.3894483
 184.5213657 109.7440515 188.5033876 184.3151881 107.6563906 177.3616574
 184.6687005 106.1705280 177.2514780 184.2749989 105.2358091 178.3999994
 182.7669551 105.2511187 178.6549279 182.0924240 104.6012166 177.4644070
 180.5840011 104.6719084 177.4730254 180.1038935 103.9763068 176.2015470
 178.5958128 103.9730083 176.1094067 190.8150000 104.2740000 175.4600000
 190.7380455 103.9033397 175.4676543 190.6555611 103.5714972 177.2075043
 193.0219754 111.5086320 178.8168291 193.1621727 110.1052427 177.7514485
 190.9149720 110.6346836 176.7740912 190.7758237 112.0214455 177.8538742
 190.9212239 110.5118512 179.8322884 191.0864698 109.1097144 178.7659043
 188.9023187 109.6777845 177.6915598 188.7458951 111.0810287 178.7493450
 188.8742658 109.5342563 180.7375970 188.8543866 108.1507500 179.6475358
 186.7447068 110.3839578 179.6315596 186.7216052 108.9863389 180.6438530
 186.7363425 107.4839625 178.5773618 186.7303881 108.9294737 177.5602644
 184.5092357 110.4226140 179.4704736 183.1743203 109.8396983 178.4742458
 184.4400002 110.5277926 176.4294638 185.8537742 110.9365952 177.4069588
 184.5099731 112.6535757 178.6291851 183.1095120 112.2642478 177.6256421
 184.4189548 112.8957877 175.5802164 185.8095354 113.2877619 176.5945471
 184.4670479 115.0371915 177.7645017 183.0647292 114.6437877 176.7752742
 184.3735892 115.2218654 174.7143420 185.7660986 115.6332493 175.7173350
 184.4237766 117.4227647 176.8487785 183.0280217 117.0073078 175.8493739
 185.7289208 118.0044951 174.7953196 184.2330697 118.9498999 174.9033585
 184.3328333 117.5768719 173.7873785 184.8010542 106.8859619 179.9561353
 183.2586585 107.7665741 179.7657896 184.2116181 109.6870562 181.0631875
 185.7468946 108.8257973 181.2152741 184.5087371 107.0330534 182.5070741
 183.0284861 107.9910040 182.3465076 184.1885385 109.9443520 183.4244737
 185.6475863 108.9704758 183.6041921 184.3966746 107.3738178 185.0748960
 182.9419449 108.3661222 184.8988867 184.1681845 110.3352743 185.8536315
 185.6184190 109.3478191 186.0291142 184.3877463 107.8121405 187.5771609
 182.9360939 108.8013802 187.4036289 185.6163060 109.7766533 188.5301465
 184.1679238 109.3832630 189.4742081 184.1517895 110.7654462 188.3635654
 184.7280187 108.0872503 176.4453470 183.2299227 107.8082412 177.3449758
 185.7067693 106.0239571 176.9492213 184.1810396 105.8179919 176.3368611
 184.8400450 105.4287473 179.3148266 184.5777210 104.2131249 178.1314306
 182.3925027 106.2744618 178.7999114 182.5358803 104.7056479 179.5764419
 182.4223367 103.5561193 177.4087990 182.4119557 105.0797440 176.5367341
 180.2592828 105.7220481 177.4753643 180.1804417 104.1929961 178.3677257
 180.4751578 102.9446438 176.1843392 180.5207045 104.4771868 175.3187974
 178.1618941 103.4751213 176.9805216 178.2811443 103.4410585 175.2085859
 178.2141053 104.9973538 176.0613582 192.7460000 101.2070000 170.8490000
 182.3310000 113.1710000 180.1460000 188.5988435 115.6742258 181.0848018
 187.0696208 115.6833423 181.0848476 186.5049748 114.2613454 181.0839514
 184.9767844 114.2679019 181.0833803 184.4052430 112.8680000 181.0830000
 183.0510000 112.8680000 181.0830000 185.0554269 111.8357992 181.0824242
 182.1440000 113.7720000 178.2880000 181.7729627 113.7716082 179.4214083
 181.7699482 113.1556945 181.0854991 188.9680424 115.1398952 181.9682020
 188.9687372 115.1389623 180.2032715 186.7062267 116.2229011 180.2024328
 186.7051634 116.2229044 181.9673625 186.8711151 113.7174740 181.9629224
 186.8710361 113.7189952 180.2027225 184.6095586 114.7863983 180.1911832
 184.6097875 114.7858719 181.9766810 182.6587631 113.7613881 181.0830000
 191.2770000 122.6100000  68.5660000 192.7267774 129.7112005  69.9921438
 191.2176515 129.6257848  69.9052115 190.6579757 128.7226163  70.9962000
 189.1592477 128.6670210  70.8293451 188.5401405 127.8002373  71.9023042
 187.0338159 127.9321808  71.8277451 186.4160844 127.1310000  70.6790000
 184.8700000 127.1310000  70.6790000 184.2626962 128.5577263  70.6790000
 184.7605752 129.4842788  69.5664628 184.2058467 130.8977891  69.7890727
 184.7133630 131.8612987  68.7210697 184.1614345 133.2724171  68.9418251
 184.6699850 134.2126350  67.8466482 184.1232930 135.6277717  68.0237523
 184.6358685 136.5451607  66.9258112 184.3465855 126.4811111  72.0260708
 184.6654433 127.2990878  73.2704143 184.1233105 126.6594234  74.5448002
 184.5513195 127.5233543  75.7249314 184.0350424 127.0020436  77.0595243
 184.5229724 127.9158103  78.1832741 184.0335094 127.4370682  79.5404483
 184.5213657 128.3480515  80.6543876 184.3151881 126.2603906  69.5126574
 184.6687005 124.7745280  69.4024780 184.2749989 123.8398091  70.5509994
 182.7669551 123.8551187  70.8059279 182.0924240 123.2052166  69.6154070
 180.5840011 123.2759084  69.6240254 180.1038935 122.5803068  68.3525470
 178.5958128 122.5770083  68.2604067 190.8150000 122.8780000  67.6110000
 190.7380455 122.5073397  67.6186543 190.6555611 122.1754972  69.3585043
 193.0219754 130.1126320  70.9678291 193.1621727 128.7092427  69.9024485
 190.9149720 129.2386836  68.9250912 190.7758237 130.6254455  70.0048742
 190.9212239 129.1158512  71.9832884 191.0864698 127.7137144  70.9169043
 188.9023187 128.2817845  69.8425598 188.7458951 129.6850287  70.9003450
 188.8742658 128.1382563  72.8885970 188.8543866 126.7547500  71.7985358
 186.7447068 128.9879578  71.7825596 186.7216052 127.5903389  72.7948530
 186.7363425 126.0879625  70.7283618 186.7303881 127.5334737  69.7112644
 184.5092357 129.0266140  71.6214736 183.1743203 128.4436983  70.6252458
 184.4400002 129.1317926  68.5804638 185.8537742 129.5405952  69.5579588
 184.5099731 131.2575757  70.7801851 183.1095120 130.8682478  69.7766421
 184.4189548 131.4997877  67.7312164 185.8095354 131.8917619  68.7455471
 184.4670479 133.6411915  69.9155017 183.0647292 133.2477877  68.9262742
 184.3735892 133.8258654  66.8653420 185.7660986 134.2372493  67.8683350
 184.4237766 136.0267647  68.9997785 183.0280217 135.6113078  68.0003739
 185.7289208 136.6084951  66.9463196 184.2330697 137.5538999  67.0543585
 184.3328333 136.1808719  65.9383785 184.8010542 125.4899619  72.1071353
 183.2586585 126.3705741  71.9167896 184.2116181 128.2910562  73.2141875
 185.7468946 127.4297973  73.3662741 184.5087371 125.6370534  74.6580741
 183.0284861 126.5950040  74.4975076 184.1885385 128.5483520  75.5754737
 185.6475863 127.5744758  75.7551921 184.3966746 125.9778178  77.2258960
 182.9419449 126.9701222  77.0498867 184.1681845 128.9392743  78.0046315
 185.6184190 127.9518191  78.1801142 184.3877463 126.4161405  79.7281609
 182.9360939 127.4053802  79.5546289 185.6163060 128.3806533  80.6811465
 184.1679238 127.9872630  81.6252081 184.1517895 129.3694462  80.5145654
 184.7280187 126.6912503  68.5963470 183.2299227 126.4122412  69.4959758
 185.7067693 124.6279571  69.1002213 184.1810396 124.4219919  68.4878611
 184.8400450 124.0327473  71.4658266 184.5777210 122.8171249  70.2824306
 182.3925027 124.8784618  70.9509114 182.5358803 123.3096479  71.7274419
 182.4223367 122.1601193  69.5597990 182.4119557 123.6837440  68.6877341
 180.2592828 124.3260481  69.6263643 180.1804417 122.7969961  70.5187257
 180.4751578 121.5486438  68.3353392 180.5207045 123.0811868  67.4697974
 178.1618941 122.0791213  69.1315216 178.2811443 122.0450585  67.3595859
 178.2141053 123.6013538  68.2123582 192.7460000 119.8110000  63.0000000
 182.3310000 131.7750000  72.2970000 188.5988435 134.2782258  73.2358018
 187.0696208 134.2873423  73.2358476 186.5049748 132.8653454  73.2349514
 184.9767844 132.8719019  73.2343803 184.4052430 131.4720000  73.2340000
 183.0510000 131.4720000  73.2340000 185.0554269 130.4397992  73.2334242
 182.1440000 132.3760000  70.4390000 181.7729627 132.3756082  71.5724083
 181.7699482 131.7596945  73.2364991 188.9680424 133.7438952  74.1192020
 188.9687372 133.7429623  72.3542715 186.7062267 134.8269011  72.3534328
 186.7051634 134.8269044  74.1183625 186.8711151 132.3214740  74.1139224
 186.8710361 132.3229952  72.3537225 184.6095586 133.3903983  72.3421832
 184.6097875 133.3898719  74.1276810 182.6587631 132.3653881  73.2340000
 191.2770000 122.6100000  86.5410000 192.7267774 129.7112005  87.9671438
 191.2176515 129.6257848  87.8802115 190.6579757 128.7226163  88.9712000
 189.1592477 128.6670210  88.8043451 188.5401405 127.8002373  89.8773042
 187.0338159 127.9321808  89.8027451 186.4160844 127.1310000  88.6540000
 184.8700000 127.1310000  88.6540000 184.2626962 128.5577263  88.6540000
 184.7605752 129.4842788  87.5414628 184.2058467 130.8977891  87.7640727
 184.7133630 131.8612987  86.6960697 184.1614345 133.2724171  86.9168251
 184.6699850 134.2126350  85.8216482 184.1232930 135.6277717  85.9987523
 184.6358685 136.5451607  84.9008112 184.3465855 126.4811111  90.0010708
 184.6654433 127.2990878  91.2454143 184.1233105 126.6594234  92.5198002
 184.5513195 127.5233543  93.6999314 184.0350424 127.0020436  95.0345243
 184.5229724 127.9158103  96.1582741 184.0335094 127.4370682  97.5154483
 184.5213657 128.3480515  98.6293876 184.3151881 126.2603906  87.4876574
 184.6687005 124.7745280  87.3774780 184.2749989 123.8398091  88.5259994
 182.7669551 123.8551187  88.7809279 182.0924240 123.2052166  87.5904070
 180.5840011 123.2759084  87.5990254 180.1038935 122.5803068  86.3275470
 178.5958128 122.5770083  86.2354067 190.8150000 122.8780000  85.5860000
 190.7380455 122.5073397  85.5936543 190.6555611 122.1754972  87.3335043
 193.0219754 130.1126320  88.9428291 193.1621727 128.7092427  87.8774485
 190.9149720 129.2386836  86.9000912 190.7758237 130.6254455  87.9798742
 190.9212239 129.1158512  89.9582884 191.0864698 127.7137144  88.8919043
 188.9023187 128.2817845  87.8175598 188.7458951 129.6850287  88.8753450
 188.8742658 128.1382563  90.8635970 188.8543866 126.7547500  89.7735358
 186.7447068 128.9879578  89.7575596 186.7216052 127.5903389  90.7698530
 186.7363425 126.0879625  88.7033618 186.7303881 127.5334737  87.6862644
 184.5092357 129.0266140  89.5964736 183.1743203 128.4436983  88.6002458
 184.4400002 129.1317926  86.5554638 185.8537742 129.5405952  87.5329588
 184.5099731 131.2575757  88.7551851 183.1095120 130.8682478  87.7516421
 184.4189548 131.4997877  85.7062164 185.8095354 131.8917619  86.7205471
 184.4670479 133.6411915  87.8905017 183.0647292 133.2477877  86.9012742
 184.3735892 133.8258654  84.8403420 185.7660986 134.2372493  85.8433350
 184.4237766 136.0267647  86.9747785 183.0280217 135.6113078  85.9753739
 185.7289208 136.6084951  84.9213196 184.2330697 137.5538999  85.0293585
 184.3328333 136.1808719  83.9133785 184.8010542 125.4899619  90.0821353
 183.2586585 126.3705741  89.8917896 184.2116181 128.2910562  91.1891875
 185.7468946 127.4297973  91.3412741 184.5087371 125.6370534  92.6330741
 183.0284861 126.5950040  92.4725076 184.1885385 128.5483520  93.5504737
 185.6475863 127.5744758  93.7301921 184.3966746 125.9778178  95.2008960
 182.9419449 126.9701222  95.0248867 184.1681845 128.9392743  95.9796315
 185.6184190 127.9518191  96.1551142 184.3877463 126.4161405  97.7031609
 182.9360939 127.4053802  97.5296289 185.6163060 128.3806533  98.6561465
 184.1679238 127.9872630  99.6002081 184.1517895 129.3694462  98.4895654
 184.7280187 126.6912503  86.5713470 183.2299227 126.4122412  87.4709758
 185.7067693 124.6279571  87.0752213 184.1810396 124.4219919  86.4628611
 184.8400450 124.0327473  89.4408266 184.5777210 122.8171249  88.2574306
 182.3925027 124.8784618  88.9259114 182.5358803 123.3096479  89.7024419
 182.4223367 122.1601193  87.5347990 182.4119557 123.6837440  86.6627341
 180.2592828 124.3260481  87.6013643 180.1804417 122.7969961  88.4937257
 180.4751578 121.5486438  86.3103392 180.5207045 123.0811868  85.4447974
 178.1618941 122.0791213  87.1065216 178.2811443 122.0450585  85.3345859
 178.2141053 123.6013538  86.1873582 192.7460000 119.8110000  80.9750000
 182.3310000 131.7750000  90.2720000 188.5988435 134.2782258  91.2108018
 187.0696208 134.2873423  91.2108476 186.5049748 132.8653454  91.2099514
 184.9767844 132.8719019  91.2093803 184.4052430 131.4720000  91.2090000
 183.0510000 131.4720000  91.2090000 185.0554269 130.4397992  91.2084242
 182.1440000 132.3760000  88.4140000 181.7729627 132.3756082  89.5474083
 181.7699482 131.7596945  91.2114991 188.9680424 133.7438952  92.0942020
 188.9687372 133.7429623  90.3292715 186.7062267 134.8269011  90.3284328
 186.7051634 134.8269044  92.0933625 186.8711151 132.3214740  92.0889224
 186.8710361 132.3229952  90.3287225 184.6095586 133.3903983  90.3171832
 184.6097875 133.3898719  92.1026810 182.6587631 132.3653881  91.2090000
 191.2770000 122.6100000 104.5160000 192.7267774 129.7112005 105.9421438
 191.2176515 129.6257848 105.8552115 190.6579757 128.7226163 106.9462000
 189.1592477 128.6670210 106.7793451 188.5401405 127.8002373 107.8523042
 187.0338159 127.9321808 107.7777451 186.4160844 127.1310000 106.6290000
 184.8700000 127.1310000 106.6290000 184.2626962 128.5577263 106.6290000
 184.7605752 129.4842788 105.5164628 184.2058467 130.8977891 105.7390727
 184.7133630 131.8612987 104.6710697 184.1614345 133.2724171 104.8918251
 184.6699850 134.2126350 103.7966482 184.1232930 135.6277717 103.9737523
 184.6358685 136.5451607 102.8758112 184.3465855 126.4811111 107.9760708
 184.6654433 127.2990878 109.2204143 184.1233105 126.6594234 110.4948002
 184.5513195 127.5233543 111.6749314 184.0350424 127.0020436 113.0095243
 184.5229724 127.9158103 114.1332741 184.0335094 127.4370682 115.4904483
 184.5213657 128.3480515 116.6043876 184.3151881 126.2603906 105.4626574
 184.6687005 124.7745280 105.3524780 184.2749989 123.8398091 106.5009994
 182.7669551 123.8551187 106.7559279 182.0924240 123.2052166 105.5654070
 180.5840011 123.2759084 105.5740254 180.1038935 122.5803068 104.3025470
 178.5958128 122.5770083 104.2104067 190.8150000 122.8780000 103.5610000
 190.7380455 122.5073397 103.5686543 190.6555611 122.1754972 105.3085043
 193.0219754 130.1126320 106.9178291 193.1621727 128.7092427 105.8524485
 190.9149720 129.2386836 104.8750912 190.7758237 130.6254455 105.9548742
 190.9212239 129.1158512 107.9332884 191.0864698 127.7137144 106.8669043
 188.9023187 128.2817845 105.7925598 188.7458951 129.6850287 106.8503450
 188.8742658 128.1382563 108.8385970 188.8543866 126.7547500 107.7485358
 186.7447068 128.9879578 107.7325596 186.7216052 127.5903389 108.7448530
 186.7363425 126.0879625 106.6783618 186.7303881 127.5334737 105.6612644
 184.5092357 129.0266140 107.5714736 183.1743203 128.4436983 106.5752458
 184.4400002 129.1317926 104.5304638 185.8537742 129.5405952 105.5079588
 184.5099731 131.2575757 106.7301851 183.1095120 130.8682478 105.7266421
 184.4189548 131.4997877 103.6812164 185.8095354 131.8917619 104.6955471
 184.4670479 133.6411915 105.8655017 183.0647292 133.2477877 104.8762742
 184.3735892 133.8258654 102.8153420 185.7660986 134.2372493 103.8183350
 184.4237766 136.0267647 104.9497785 183.0280217 135.6113078 103.9503739
 185.7289208 136.6084951 102.8963196 184.2330697 137.5538999 103.0043585
 184.3328333 136.1808719 101.8883785 184.8010542 125.4899619 108.0571353
 183.2586585 126.3705741 107.8667896 184.2116181 128.2910562 109.1641875
 185.7468946 127.4297973 109.3162741 184.5087371 125.6370534 110.6080741
 183.0284861 126.5950040 110.4475076 184.1885385 128.5483520 111.5254737
 185.6475863 127.5744758 111.7051921 184.3966746 125.9778178 113.1758960
 182.9419449 126.9701222 112.9998867 184.1681845 128.9392743 113.9546315
 185.6184190 127.9518191 114.1301142 184.3877463 126.4161405 115.6781609
 182.9360939 127.4053802 115.5046289 185.6163060 128.3806533 116.6311465
 184.1679238 127.9872630 117.5752081 184.1517895 129.3694462 116.4645654
 184.7280187 126.6912503 104.5463470 183.2299227 126.4122412 105.4459758
 185.7067693 124.6279571 105.0502213 184.1810396 124.4219919 104.4378611
 184.8400450 124.0327473 107.4158266 184.5777210 122.8171249 106.2324306
 182.3925027 124.8784618 106.9009114 182.5358803 123.3096479 107.6774419
 182.4223367 122.1601193 105.5097990 182.4119557 123.6837440 104.6377341
 180.2592828 124.3260481 105.5763643 180.1804417 122.7969961 106.4687257
 180.4751578 121.5486438 104.2853392 180.5207045 123.0811868 103.4197974
 178.1618941 122.0791213 105.0815216 178.2811443 122.0450585 103.3095859
 178.2141053 123.6013538 104.1623582 192.7460000 119.8110000  98.9500000
 182.3310000 131.7750000 108.2470000 188.5988435 134.2782258 109.1858018
 187.0696208 134.2873423 109.1858476 186.5049748 132.8653454 109.1849514
 184.9767844 132.8719019 109.1843803 184.4052430 131.4720000 109.1840000
 183.0510000 131.4720000 109.1840000 185.0554269 130.4397992 109.1834242
 182.1440000 132.3760000 106.3890000 181.7729627 132.3756082 107.5224083
 181.7699482 131.7596945 109.1864991 188.9680424 133.7438952 110.0692020
 188.9687372 133.7429623 108.3042715 186.7062267 134.8269011 108.3034328
 186.7051634 134.8269044 110.0683625 186.8711151 132.3214740 110.0639224
 186.8710361 132.3229952 108.3037225 184.6095586 133.3903983 108.2921832
 184.6097875 133.3898719 110.0776810 182.6587631 132.3653881 109.1840000
 191.2770000 122.6100000 122.4900000 192.7267774 129.7112005 123.9161438
 191.2176515 129.6257848 123.8292115 190.6579757 128.7226163 124.9202000
 189.1592477 128.6670210 124.7533451 188.5401405 127.8002373 125.8263042
 187.0338159 127.9321808 125.7517451 186.4160844 127.1310000 124.6030000
 184.8700000 127.1310000 124.6030000 184.2626962 128.5577263 124.6030000
 184.7605752 129.4842788 123.4904628 184.2058467 130.8977891 123.7130727
 184.7133630 131.8612987 122.6450697 184.1614345 133.2724171 122.8658251
 184.6699850 134.2126350 121.7706482 184.1232930 135.6277717 121.9477523
 184.6358685 136.5451607 120.8498112 184.3465855 126.4811111 125.9500708
 184.6654433 127.2990878 127.1944143 184.1233105 126.6594234 128.4688002
 184.5513195 127.5233543 129.6489314 184.0350424 127.0020436 130.9835243
 184.5229724 127.9158103 132.1072741 184.0335094 127.4370682 133.4644483
 184.5213657 128.3480515 134.5783876 184.3151881 126.2603906 123.4366574
 184.6687005 124.7745280 123.3264780 184.2749989 123.8398091 124.4749994
 182.7669551 123.8551187 124.7299279 182.0924240 123.2052166 123.5394070
 180.5840011 123.2759084 123.5480254 180.1038935 122.5803068 122.2765470
 178.5958128 122.5770083 122.1844067 190.8150000 122.8780000 121.5350000
 190.7380455 122.5073397 121.5426543 190.6555611 122.1754972 123.2825043
 193.0219754 130.1126320 124.8918291 193.1621727 128.7092427 123.8264485
 190.9149720 129.2386836 122.8490912 190.7758237 130.6254455 123.9288742
 190.9212239 129.1158512 125.9072884 191.0864698 127.7137144 124.8409043
 188.9023187 128.2817845 123.7665598 188.7458951 129.6850287 124.8243450
 188.8742658 128.1382563 126.8125970 188.8543866 126.7547500 125.7225358
 186.7447068 128.9879578 125.7065596 186.7216052 127.5903389 126.7188530
 186.7363425 126.0879625 124.6523618 186.7303881 127.5334737 123.6352644
 184.5092357 129.0266140 125.5454736 183.1743203 128.4436983 124.5492458
 184.4400002 129.1317926 122.5044638 185.8537742 129.5405952 123.4819588
 184.5099731 131.2575757 124.7041851 183.1095120 130.8682478 123.7006421
 184.4189548 131.4997877 121.6552164 185.8095354 131.8917619 122.6695471
 184.4670479 133.6411915 123.8395017 183.0647292 133.2477877 122.8502742
 184.3735892 133.8258654 120.7893420 185.7660986 134.2372493 121.7923350
 184.4237766 136.0267647 122.9237785 183.0280217 135.6113078 121.9243739
 185.7289208 136.6084951 120.8703196 184.2330697 137.5538999 120.9783585
 184.3328333 136.1808719 119.8623785 184.8010542 125.4899619 126.0311353
 183.2586585 126.3705741 125.8407896 184.2116181 128.2910562 127.1381875
 185.7468946 127.4297973 127.2902741 184.5087371 125.6370534 128.5820741
 183.0284861 126.5950040 128.4215076 184.1885385 128.5483520 129.4994737
 185.6475863 127.5744758 129.6791921 184.3966746 125.9778178 131.1498960
 182.9419449 126.9701222 130.9738867 184.1681845 128.9392743 131.9286315
 185.6184190 127.9518191 132.1041142 184.3877463 126.4161405 133.6521609
 182.9360939 127.4053802 133.4786289 185.6163060 128.3806533 134.6051465
 184.1679238 127.9872630 135.5492081 184.1517895 129.3694462 134.4385654
 184.7280187 126.6912503 122.5203470 183.2299227 126.4122412 123.4199758
 185.7067693 124.6279571 123.0242213 184.1810396 124.4219919 122.4118611
 184.8400450 124.0327473 125.3898266 184.5777210 122.8171249 124.2064306
 182.3925027 124.8784618 124.8749114 182.5358803 123.3096479 125.6514419
 182.4223367 122.1601193 123.4837990 182.4119557 123.6837440 122.6117341
 180.2592828 124.3260481 123.5503643 180.1804417 122.7969961 124.4427257
 180.4751578 121.5486438 122.2593392 180.5207045 123.0811868 121.3937974
 178.1618941 122.0791213 123.0555216 178.2811443 122.0450585 121.2835859
 178.2141053 123.6013538 122.1363582 192.7460000 119.8110000 116.9240000
 182.3310000 131.7750000 126.2210000 188.5988435 134.2782258 127.1598018
 187.0696208 134.2873423 127.1598476 186.5049748 132.8653454 127.1589514
 184.9767844 132.8719019 127.1583803 184.4052430 131.4720000 127.1580000
 183.0510000 131.4720000 127.1580000 185.0554269 130.4397992 127.1574242
 182.1440000 132.3760000 124.3630000 181.7729627 132.3756082 125.4964083
 181.7699482 131.7596945 127.1604991 188.9680424 133.7438952 128.0432020
 188.9687372 133.7429623 126.2782715 186.7062267 134.8269011 126.2774328
 186.7051634 134.8269044 128.0423625 186.8711151 132.3214740 128.0379224
 186.8710361 132.3229952 126.2777225 184.6095586 133.3903983 126.2661832
 184.6097875 133.3898719 128.0516810 182.6587631 132.3653881 127.1580000
 191.2770000 122.6100000 140.4650000 192.7267774 129.7112005 141.8911438
 191.2176515 129.6257848 141.8042115 190.6579757 128.7226163 142.8952000
 189.1592477 128.6670210 142.7283451 188.5401405 127.8002373 143.8013042
 187.0338159 127.9321808 143.7267451 186.4160844 127.1310000 142.5780000
 184.8700000 127.1310000 142.5780000 184.2626962 128.5577263 142.5780000
 184.7605752 129.4842788 141.4654628 184.2058467 130.8977891 141.6880727
 184.7133630 131.8612987 140.6200697 184.1614345 133.2724171 140.8408251
 184.6699850 134.2126350 139.7456482 184.1232930 135.6277717 139.9227523
 184.6358685 136.5451607 138.8248112 184.3465855 126.4811111 143.9250708
 184.6654433 127.2990878 145.1694143 184.1233105 126.6594234 146.4438002
 184.5513195 127.5233543 147.6239314 184.0350424 127.0020436 148.9585243
 184.5229724 127.9158103 150.0822741 184.0335094 127.4370682 151.4394483
 184.5213657 128.3480515 152.5533876 184.3151881 126.2603906 141.4116574
 184.6687005 124.7745280 141.3014780 184.2749989 123.8398091 142.4499994
 182.7669551 123.8551187 142.7049279 182.0924240 123.2052166 141.5144070
 180.5840011 123.2759084 141.5230254 180.1038935 122.5803068 140.2515470
 178.5958128 122.5770083 140.1594067 190.8150000 122.8780000 139.5100000
 190.7380455 122.5073397 139.5176543 190.6555611 122.1754972 141.2575043
 193.0219754 130.1126320 142.8668291 193.1621727 128.7092427 141.8014485
 190.9149720 129.2386836 140.8240912 190.7758237 130.6254455 141.9038742
 190.9212239 129.1158512 143.8822884 191.0864698 127.7137144 142.8159043
 188.9023187 128.2817845 141.7415598 188.7458951 129.6850287 142.7993450
 188.8742658 128.1382563 144.7875970 188.8543866 126.7547500 143.6975358
 186.7447068 128.9879578 143.6815596 186.7216052 127.5903389 144.6938530
 186.7363425 126.0879625 142.6273618 186.7303881 127.5334737 141.6102644
 184.5092357 129.0266140 143.5204736 183.1743203 128.4436983 142.5242458
 184.4400002 129.1317926 140.4794638 185.8537742 129.5405952 141.4569588
 184.5099731 131.2575757 142.6791851 183.1095120 130.8682478 141.6756421
 184.4189548 131.4997877 139.6302164 185.8095354 131.8917619 140.6445471
 184.4670479 133.6411915 141.8145017 183.0647292 133.2477877 140.8252742
 184.3735892 133.8258654 138.7643420 185.7660986 134.2372493 139.7673350
 184.4237766 136.0267647 140.8987785 183.0280217 135.6113078 139.8993739
 185.7289208 136.6084951 138.8453196 184.2330697 137.5538999 138.9533585
 184.3328333 136.1808719 137.8373785 184.8010542 125.4899619 144.0061353
 183.2586585 126.3705741 143.8157896 184.2116181 128.2910562 145.1131875
 185.7468946 127.4297973 145.2652741 184.5087371 125.6370534 146.5570741
 183.0284861 126.5950040 146.3965076 184.1885385 128.5483520 147.4744737
 185.6475863 127.5744758 147.6541921 184.3966746 125.9778178 149.1248960
 182.9419449 126.9701222 148.9488867 184.1681845 128.9392743 149.9036315
 185.6184190 127.9518191 150.0791142 184.3877463 126.4161405 151.6271609
 182.9360939 127.4053802 151.4536289 185.6163060 128.3806533 152.5801465
 184.1679238 127.9872630 153.5242081 184.1517895 129.3694462 152.4135654
 184.7280187 126.6912503 140.4953470 183.2299227 126.4122412 141.3949758
 185.7067693 124.6279571 140.9992213 184.1810396 124.4219919 140.3868611
 184.8400450 124.0327473 143.3648266 184.5777210 122.8171249 142.1814306
 182.3925027 124.8784618 142.8499114 182.5358803 123.3096479 143.6264419
 182.4223367 122.1601193 141.4587990 182.4119557 123.6837440 140.5867341
 180.2592828 124.3260481 141.5253643 180.1804417 122.7969961 142.4177257
 180.4751578 121.5486438 140.2343392 180.5207045 123.0811868 139.3687974
 178.1618941 122.0791213 141.0305216 178.2811443 122.0450585 139.2585859
 178.2141053 123.6013538 140.1113582 192.7460000 119.8110000 134.8990000
 182.3310000 131.7750000 144.1960000 188.5988435 134.2782258 145.1348018
 187.0696208 134.2873423 145.1348476 186.5049748 132.8653454 145.1339514
 184.9767844 132.8719019 145.1333803 184.4052430 131.4720000 145.1330000
 183.0510000 131.4720000 145.1330000 185.0554269 130.4397992 145.1324242
 182.1440000 132.3760000 142.3380000 181.7729627 132.3756082 143.4714083
 181.7699482 131.7596945 145.1354991 188.9680424 133.7438952 146.0182020
 188.9687372 133.7429623 144.2532715 186.7062267 134.8269011 144.2524328
 186.7051634 134.8269044 146.0173625 186.8711151 132.3214740 146.0129224
 186.8710361 132.3229952 144.2527225 184.6095586 133.3903983 144.2411832
 184.6097875 133.3898719 146.0266810 182.6587631 132.3653881 145.1330000
 191.2770000 122.6100000 158.4400000 192.7267774 129.7112005 159.8661438
 191.2176515 129.6257848 159.7792115 190.6579757 128.7226163 160.8702000
 189.1592477 128.6670210 160.7033451 188.5401405 127.8002373 161.7763042
 187.0338159 127.9321808 161.7017451 186.4160844 127.1310000 160.5530000
 184.8700000 127.1310000 160.5530000 184.2626962 128.5577263 160.5530000
 184.7605752 129.4842788 159.4404628 184.2058467 130.8977891 159.6630727
 184.7133630 131.8612987 158.5950697 184.1614345 133.2724171 158.8158251
 184.6699850 134.2126350 157.7206482 184.1232930 135.6277717 157.8977523
 184.6358685 136.5451607 156.7998112 184.3465855 126.4811111 161.9000708
 184.6654433 127.2990878 163.1444143 184.1233105 126.6594234 164.4188002
 184.5513195 127.5233543 165.5989314 184.0350424 127.0020436 166.9335243
 184.5229724 127.9158103 168.0572741 184.0335094 127.4370682 169.4144483
 184.5213657 128.3480515 170.5283876 184.3151881 126.2603906 159.3866574
 184.6687005 124.7745280 159.2764780 184.2749989 123.8398091 160.4249994
 182.7669551 123.8551187 160.6799279 182.0924240 123.2052166 159.4894070
 180.5840011 123.2759084 159.4980254 180.1038935 122.5803068 158.2265470
 178.5958128 122.5770083 158.1344067 190.8150000 122.8780000 157.4850000
 190.7380455 122.5073397 157.4926543 190.6555611 122.1754972 159.2325043
 193.0219754 130.1126320 160.8418291 193.1621727 128.7092427 159.7764485
 190.9149720 129.2386836 158.7990912 190.7758237 130.6254455 159.8788742
 190.9212239 129.1158512 161.8572884 191.0864698 127.7137144 160.7909043
 188.9023187 128.2817845 159.7165598 188.7458951 129.6850287 160.7743450
 188.8742658 128.1382563 162.7625970 188.8543866 126.7547500 161.6725358
 186.7447068 128.9879578 161.6565596 186.7216052 127.5903389 162.6688530
 186.7363425 126.0879625 160.6023618 186.7303881 127.5334737 159.5852644
 184.5092357 129.0266140 161.4954736 183.1743203 128.4436983 160.4992458
 184.4400002 129.1317926 158.4544638 185.8537742 129.5405952 159.4319588
 184.5099731 131.2575757 160.6541851 183.1095120 130.8682478 159.6506421
 184.4189548 131.4997877 157.6052164 185.8095354 131.8917619 158.6195471
 184.4670479 133.6411915 159.7895017 183.0647292 133.2477877 158.8002742
 184.3735892 133.8258654 156.7393420 185.7660986 134.2372493 157.7423350
 184.4237766 136.0267647 158.8737785 183.0280217 135.6113078 157.8743739
 185.7289208 136.6084951 156.8203196 184.2330697 137.5538999 156.9283585
 184.3328333 136.1808719 155.8123785 184.8010542 125.4899619 161.9811353
 183.2586585 126.3705741 161.7907896 184.2116181 128.2910562 163.0881875
 185.7468946 127.4297973 163.2402741 184.5087371 125.6370534 164.5320741
 183.0284861 126.5950040 164.3715076 184.1885385 128.5483520 165.4494737
 185.6475863 127.5744758 165.6291921 184.3966746 125.9778178 167.0998960
 182.9419449 126.9701222 166.9238867 184.1681845 128.9392743 167.8786315
 185.6184190 127.9518191 168.0541142 184.3877463 126.4161405 169.6021609
 182.9360939 127.4053802 169.4286289 185.6163060 128.3806533 170.5551465
 184.1679238 127.9872630 171.4992081 184.1517895 129.3694462 170.3885654
 184.7280187 126.6912503 158.4703470 183.2299227 126.4122412 159.3699758
 185.7067693 124.6279571 158.9742213 184.1810396 124.4219919 158.3618611
 184.8400450 124.0327473 161.3398266 184.5777210 122.8171249 160.1564306
 182.3925027 124.8784618 160.8249114 182.5358803 123.3096479 161.6014419
 182.4223367 122.1601193 159.4337990 182.4119557 123.6837440 158.5617341
 180.2592828 124.3260481 159.5003643 180.1804417 122.7969961 160.3927257
 180.4751578 121.5486438 158.2093392 180.5207045 123.0811868 157.3437974
 178.1618941 122.0791213 159.0055216 178.2811443 122.0450585 157.2335859
 178.2141053 123.6013538 158.0863582 192.7460000 119.8110000 152.8740000
 182.3310000 131.7750000 162.1710000 188.5988435 134.2782258 163.1098018
 187.0696208 134.2873423 163.1098476 186.5049748 132.8653454 163.1089514
 184.9767844 132.8719019 163.1083803 184.4052430 131.4720000 163.1080000
 183.0510000 131.4720000 163.1080000 185.0554269 130.4397992 163.1074242
 182.1440000 132.3760000 160.3130000 181.7729627 132.3756082 161.4464083
 181.7699482 131.7596945 163.1104991 188.9680424 133.7438952 163.9932020
 188.9687372 133.7429623 162.2282715 186.7062267 134.8269011 162.2274328
 186.7051634 134.8269044 163.9923625 186.8711151 132.3214740 163.9879224
 186.8710361 132.3229952 162.2277225 184.6095586 133.3903983 162.2161832
 184.6097875 133.3898719 164.0016810 182.6587631 132.3653881 163.1080000
 191.2770000 122.6100000 176.4150000 192.7267774 129.7112005 177.8411438
 191.2176515 129.6257848 177.7542115 190.6579757 128.7226163 178.8452000
 189.1592477 128.6670210 178.6783451 188.5401405 127.8002373 179.7513042
 187.0338159 127.9321808 179.6767451 186.4160844 127.1310000 178.5280000
 184.8700000 127.1310000 178.5280000 184.2626962 128.5577263 178.5280000
 184.7605752 129.4842788 177.4154628 184.2058467 130.8977891 177.6380727
 184.7133630 131.8612987 176.5700697 184.1614345 133.2724171 176.7908251
 184.6699850 134.2126350 175.6956482 184.1232930 135.6277717 175.8727523
 184.6358685 136.5451607 174.7748112 184.3465855 126.4811111 179.8750708
 184.6654433 127.2990878 181.1194143 184.1233105 126.6594234 182.3938002
 184.5513195 127.5233543 183.5739314 184.0350424 127.0020436 184.9085243
 184.5229724 127.9158103 186.0322741 184.0335094 127.4370682 187.3894483
 184.5213657 128.3480515 188.5033876 184.3151881 126.2603906 177.3616574
 184.6687005 124.7745280 177.2514780 184.2749989 123.8398091 178.3999994
 182.7669551 123.8551187 178.6549279 182.0924240 123.2052166 177.4644070
 180.5840011 123.2759084 177.4730254 180.1038935 122.5803068 176.2015470
 178.5958128 122.5770083 176.1094067 190.8150000 122.8780000 175.4600000
 190.7380455 122.5073397 175.4676543 190.6555611 122.1754972 177.2075043
 193.0219754 130.1126320 178.8168291 193.1621727 128.7092427 177.7514485
 190.9149720 129.2386836 176.7740912 190.7758237 130.6254455 177.8538742
 190.9212239 129.1158512 179.8322884 191.0864698 127.7137144 178.7659043
 188.9023187 128.2817845 177.6915598 188.7458951 129.6850287 178.7493450
 188.8742658 128.1382563 180.7375970 188.8543866 126.7547500 179.6475358
 186.7447068 128.9879578 179.6315596 186.7216052 127.5903389 180.6438530
 186.7363425 126.0879625 178.5773618 186.7303881 127.5334737 177.5602644
 184.5092357 129.0266140 179.4704736 183.1743203 128.4436983 178.4742458
 184.4400002 129.1317926 176.4294638 185.8537742 129.5405952 177.4069588
 184.5099731 131.2575757 178.6291851 183.1095120 130.8682478 177.6256421
 184.4189548 131.4997877 175.5802164 185.8095354 131.8917619 176.5945471
 184.4670479 133.6411915 177.7645017 183.0647292 133.2477877 176.7752742
 184.3735892 133.8258654 174.7143420 185.7660986 134.2372493 175.7173350
 184.4237766 136.0267647 176.8487785 183.0280217 135.6113078 175.8493739
 185.7289208 136.6084951 174.7953196 184.2330697 137.5538999 174.9033585
 184.3328333 136.1808719 173.7873785 184.8010542 125.4899619 179.9561353
 183.2586585 126.3705741 179.7657896 184.2116181 128.2910562 181.0631875
 185.7468946 127.4297973 181.2152741 184.5087371 125.6370534 182.5070741
 183.0284861 126.5950040 182.3465076 184.1885385 128.5483520 183.4244737
 185.6475863 127.5744758 183.6041921 184.3966746 125.9778178 185.0748960
 182.9419449 126.9701222 184.8988867 184.1681845 128.9392743 185.8536315
 185.6184190 127.9518191 186.0291142 184.3877463 126.4161405 187.5771609
 182.9360939 127.4053802 187.4036289 185.6163060 128.3806533 188.5301465
 184.1679238 127.9872630 189.4742081 184.1517895 129.3694462 188.3635654
 184.7280187 126.6912503 176.4453470 183.2299227 126.4122412 177.3449758
 185.7067693 124.6279571 176.9492213 184.1810396 124.4219919 176.3368611
 184.8400450 124.0327473 179.3148266 184.5777210 122.8171249 178.1314306
 182.3925027 124.8784618 178.7999114 182.5358803 123.3096479 179.5764419
 182.4223367 122.1601193 177.4087990 182.4119557 123.6837440 176.5367341
 180.2592828 124.3260481 177.4753643 180.1804417 122.7969961 178.3677257
 180.4751578 121.5486438 176.1843392 180.5207045 123.0811868 175.3187974
 178.1618941 122.0791213 176.9805216 178.2811443 122.0450585 175.2085859
 178.2141053 123.6013538 176.0613582 192.7460000 119.8110000 170.8490000
 182.3310000 131.7750000 180.1460000 188.5988435 134.2782258 181.0848018
 187.0696208 134.2873423 181.0848476 186.5049748 132.8653454 181.0839514
 184.9767844 132.8719019 181.0833803 184.4052430 131.4720000 181.0830000
 183.0510000 131.4720000 181.0830000 185.0554269 130.4397992 181.0824242
 182.1440000 132.3760000 178.2880000 181.7729627 132.3756082 179.4214083
 181.7699482 131.7596945 181.0854991 188.9680424 133.7438952 181.9682020
 188.9687372 133.7429623 180.2032715 186.7062267 134.8269011 180.2024328
 186.7051634 134.8269044 181.9673625 186.8711151 132.3214740 181.9629224
 186.8710361 132.3229952 180.2027225 184.6095586 133.3903983 180.1911832
 184.6097875 133.3898719 181.9766810 182.6587631 132.3653881 181.0830000
 191.2770000 141.2130000  68.5660000 192.7267774 148.3142005  69.9921438
 191.2176515 148.2287848  69.9052115 190.6579757 147.3256163  70.9962000
 189.1592477 147.2700210  70.8293451 188.5401405 146.4032373  71.9023042
 187.0338159 146.5351808  71.8277451 186.4160844 145.7340000  70.6790000
 184.8700000 145.7340000  70.6790000 184.2626962 147.1607263  70.6790000
 184.7605752 148.0872788  69.5664628 184.2058467 149.5007891  69.7890727
 184.7133630 150.4642987  68.7210697 184.1614345 151.8754171  68.9418251
 184.6699850 152.8156350  67.8466482 184.1232930 154.2307717  68.0237523
 184.6358685 155.1481607  66.9258112 184.3465855 145.0841111  72.0260708
 184.6654433 145.9020878  73.2704143 184.1233105 145.2624234  74.5448002
 184.5513195 146.1263543  75.7249314 184.0350424 145.6050436  77.0595243
 184.5229724 146.5188103  78.1832741 184.0335094 146.0400682  79.5404483
 184.5213657 146.9510515  80.6543876 184.3151881 144.8633906  69.5126574
 184.6687005 143.3775280  69.4024780 184.2749989 142.4428091  70.5509994
 182.7669551 142.4581187  70.8059279 182.0924240 141.8082166  69.6154070
 180.5840011 141.8789084  69.6240254 180.1038935 141.1833068  68.3525470
 178.5958128 141.1800083  68.2604067 190.8150000 141.4810000  67.6110000
 190.7380455 141.1103397  67.6186543 190.6555611 140.7784972  69.3585043
 193.0219754 148.7156320  70.9678291 193.1621727 147.3122427  69.9024485
 190.9149720 147.8416836  68.9250912 190.7758237 149.2284455  70.0048742
 190.9212239 147.7188512  71.9832884 191.0864698 146.3167144  70.9169043
 188.9023187 146.8847845  69.8425598 188.7458951 148.2880287  70.9003450
 188.8742658 146.7412563  72.8885970 188.8543866 145.3577500  71.7985358
 186.7447068 147.5909578  71.7825596 186.7216052 146.1933389  72.7948530
 186.7363425 144.6909625  70.7283618 186.7303881 146.1364737  69.7112644
 184.5092357 147.6296140  71.6214736 183.1743203 147.0466983  70.6252458
 184.4400002 147.7347926  68.5804638 185.8537742 148.1435952  69.5579588
 184.5099731 149.8605757  70.7801851 183.1095120 149.4712478  69.7766421
 184.4189548 150.1027877  67.7312164 185.8095354 150.4947619  68.7455471
 184.4670479 152.2441915  69.9155017 183.0647292 151.8507877  68.9262742
 184.3735892 152.4288654  66.8653420 185.7660986 152.8402493  67.8683350
 184.4237766 154.6297647  68.9997785 183.0280217 154.2143078  68.0003739
 185.7289208 155.2114951  66.9463196 184.2330697 156.1568999  67.0543585
 184.3328333 154.7838719  65.9383785 184.8010542 144.0929619  72.1071353
 183.2586585 144.9735741  71.9167896 184.2116181 146.8940562  73.2141875
 185.7468946 146.0327973  73.3662741 184.5087371 144.2400534  74.6580741
 183.0284861 145.1980040  74.4975076 184.1885385 147.1513520  75.5754737
 185.6475863 146.1774758  75.7551921 184.3966746 144.5808178  77.2258960
 182.9419449 145.5731222  77.0498867 184.1681845 147.5422743  78.0046315
 185.6184190 146.5548191  78.1801142 184.3877463 145.0191405  79.7281609
 182.9360939 146.0083802  79.5546289 185.6163060 146.9836533  80.6811465
 184.1679238 146.5902630  81.6252081 184.1517895 147.9724462  80.5145654
 184.7280187 145.2942503  68.5963470 183.2299227 145.0152412  69.4959758
 185.7067693 143.2309571  69.1002213 184.1810396 143.0249919  68.4878611
 184.8400450 142.6357473  71.4658266 184.5777210 141.4201249  70.2824306
 182.3925027 143.4814618  70.9509114 182.5358803 141.9126479  71.7274419
 182.4223367 140.7631193  69.5597990 182.4119557 142.2867440  68.6877341
 180.2592828 142.9290481  69.6263643 180.1804417 141.3999961  70.5187257
 180.4751578 140.1516438  68.3353392 180.5207045 141.6841868  67.4697974
 178.1618941 140.6821213  69.1315216 178.2811443 140.6480585  67.3595859
 178.2141053 142.2043538  68.2123582 192.7460000 138.4140000  63.0000000
 182.3310000 150.3780000  72.2970000 188.5988435 152.8812258  73.2358018
 187.0696208 152.8903423  73.2358476 186.5049748 151.4683454  73.2349514
 184.9767844 151.4749019  73.2343803 184.4052430 150.0750000  73.2340000
 183.0510000 150.0750000  73.2340000 185.0554269 149.0427992  73.2334242
 182.1440000 150.9790000  70.4390000 181.7729627 150.9786082  71.5724083
 181.7699482 150.3626945  73.2364991 188.9680424 152.3468952  74.1192020
 188.9687372 152.3459623  72.3542715 186.7062267 153.4299011  72.3534328
 186.7051634 153.4299044  74.1183625 186.8711151 150.9244740  74.1139224
 186.8710361 150.9259952  72.3537225 184.6095586 151.9933983  72.3421832
 184.6097875 151.9928719  74.1276810 182.6587631 150.9683881  73.2340000
 191.2770000 141.2130000  86.5410000 192.7267774 148.3142005  87.9671438
 191.2176515 148.2287848  87.8802115 190.6579757 147.3256163  88.9712000
 189.1592477 147.2700210  88.8043451 188.5401405 146.4032373  89.8773042
 187.0338159 146.5351808  89.8027451 186.4160844 145.7340000  88.6540000
 184.8700000 145.7340000  88.6540000 184.2626962 147.1607263  88.6540000
 184.7605752 148.0872788  87.5414628 184.2058467 149.5007891  87.7640727
 184.7133630 150.4642987  86.6960697 184.1614345 151.8754171  86.9168251
 184.6699850 152.8156350  85.8216482 184.1232930 154.2307717  85.9987523
 184.6358685 155.1481607  84.9008112 184.3465855 145.0841111  90.0010708
 184.6654433 145.9020878  91.2454143 184.1233105 145.2624234  92.5198002
 184.5513195 146.1263543  93.6999314 184.0350424 145.6050436  95.0345243
 184.5229724 146.5188103  96.1582741 184.0335094 146.0400682  97.5154483
 184.5213657 146.9510515  98.6293876 184.3151881 144.8633906  87.4876574
 184.6687005 143.3775280  87.3774780 184.2749989 142.4428091  88.5259994
 182.7669551 142.4581187  88.7809279 182.0924240 141.8082166  87.5904070
 180.5840011 141.8789084  87.5990254 180.1038935 141.1833068  86.3275470
 178.5958128 141.1800083  86.2354067 190.8150000 141.4810000  85.5860000
 190.7380455 141.1103397  85.5936543 190.6555611 140.7784972  87.3335043
 193.0219754 148.7156320  88.9428291 193.1621727 147.3122427  87.8774485
 190.9149720 147.8416836  86.9000912 190.7758237 149.2284455  87.9798742
 190.9212239 147.7188512  89.9582884 191.0864698 146.3167144  88.8919043
 188.9023187 146.8847845  87.8175598 188.7458951 148.2880287  88.8753450
 188.8742658 146.7412563  90.8635970 188.8543866 145.3577500  89.7735358
 186.7447068 147.5909578  89.7575596 186.7216052 146.1933389  90.7698530
 186.7363425 144.6909625  88.7033618 186.7303881 146.1364737  87.6862644
 184.5092357 147.6296140  89.5964736 183.1743203 147.0466983  88.6002458
 184.4400002 147.7347926  86.5554638 185.8537742 148.1435952  87.5329588
 184.5099731 149.8605757  88.7551851 183.1095120 149.4712478  87.7516421
 184.4189548 150.1027877  85.7062164 185.8095354 150.4947619  86.7205471
 184.4670479 152.2441915  87.8905017 183.0647292 151.8507877  86.9012742
 184.3735892 152.4288654  84.8403420 185.7660986 152.8402493  85.8433350
 184.4237766 154.6297647  86.9747785 183.0280217 154.2143078  85.9753739
 185.7289208 155.2114951  84.9213196 184.2330697 156.1568999  85.0293585
 184.3328333 154.7838719  83.9133785 184.8010542 144.0929619  90.0821353
 183.2586585 144.9735741  89.8917896 184.2116181 146.8940562  91.1891875
 185.7468946 146.0327973  91.3412741 184.5087371 144.2400534  92.6330741
 183.0284861 145.1980040  92.4725076 184.1885385 147.1513520  93.5504737
 185.6475863 146.1774758  93.7301921 184.3966746 144.5808178  95.2008960
 182.9419449 145.5731222  95.0248867 184.1681845 147.5422743  95.9796315
 185.6184190 146.5548191  96.1551142 184.3877463 145.0191405  97.7031609
 182.9360939 146.0083802  97.5296289 185.6163060 146.9836533  98.6561465
 184.1679238 146.5902630  99.6002081 184.1517895 147.9724462  98.4895654
 184.7280187 145.2942503  86.5713470 183.2299227 145.0152412  87.4709758
 185.7067693 143.2309571  87.0752213 184.1810396 143.0249919  86.4628611
 184.8400450 142.6357473  89.4408266 184.5777210 141.4201249  88.2574306
 182.3925027 143.4814618  88.9259114 182.5358803 141.9126479  89.7024419
 182.4223367 140.7631193  87.5347990 182.4119557 142.2867440  86.6627341
 180.2592828 142.9290481  87.6013643 180.1804417 141.3999961  88.4937257
 180.4751578 140.1516438  86.3103392 180.5207045 141.6841868  85.4447974
 178.1618941 140.6821213  87.1065216 178.2811443 140.6480585  85.3345859
 178.2141053 142.2043538  86.1873582 192.7460000 138.4140000  80.9750000
 182.3310000 150.3780000  90.2720000 188.5988435 152.8812258  91.2108018
 187.0696208 152.8903423  91.2108476 186.5049748 151.4683454  91.2099514
 184.9767844 151.4749019  91.2093803 184.4052430 150.0750000  91.2090000
 183.0510000 150.0750000  91.2090000 185.0554269 149.0427992  91.2084242
 182.1440000 150.9790000  88.4140000 181.7729627 150.9786082  89.5474083
 181.7699482 150.3626945  91.2114991 188.9680424 152.3468952  92.0942020
 188.9687372 152.3459623  90.3292715 186.7062267 153.4299011  90.3284328
 186.7051634 153.4299044  92.0933625 186.8711151 150.9244740  92.0889224
 186.8710361 150.9259952  90.3287225 184.6095586 151.9933983  90.3171832
 184.6097875 151.9928719  92.1026810 182.6587631 150.9683881  91.2090000
 191.2770000 141.2130000 104.5160000 192.7267774 148.3142005 105.9421438
 191.2176515 148.2287848 105.8552115 190.6579757 147.3256163 106.9462000
 189.1592477 147.2700210 106.7793451 188.5401405 146.4032373 107.8523042
 187.0338159 146.5351808 107.7777451 186.4160844 145.7340000 106.6290000
 184.8700000 145.7340000 106.6290000 184.2626962 147.1607263 106.6290000
 184.7605752 148.0872788 105.5164628 184.2058467 149.5007891 105.7390727
 184.7133630 150.4642987 104.6710697 184.1614345 151.8754171 104.8918251
 184.6699850 152.8156350 103.7966482 184.1232930 154.2307717 103.9737523
 184.6358685 155.1481607 102.8758112 184.3465855 145.0841111 107.9760708
 184.6654433 145.9020878 109.2204143 184.1233105 145.2624234 110.4948002
 184.5513195 146.1263543 111.6749314 184.0350424 145.6050436 113.0095243
 184.5229724 146.5188103 114.1332741 184.0335094 146.0400682 115.4904483
 184.5213657 146.9510515 116.6043876 184.3151881 144.8633906 105.4626574
 184.6687005 143.3775280 105.3524780 184.2749989 142.4428091 106.5009994
 182.7669551 142.4581187 106.7559279 182.0924240 141.8082166 105.5654070
 180.5840011 141.8789084 105.5740254 180.1038935 141.1833068 104.3025470
 178.5958128 141.1800083 104.2104067 190.8150000 141.4810000 103.5610000
 190.7380455 141.1103397 103.5686543 190.6555611 140.7784972 105.3085043
 193.0219754 148.7156320 106.9178291 193.1621727 147.3122427 105.8524485
 190.9149720 147.8416836 104.8750912 190.7758237 149.2284455 105.9548742
 190.9212239 147.7188512 107.9332884 191.0864698 146.3167144 106.8669043
 188.9023187 146.8847845 105.7925598 188.7458951 148.2880287 106.8503450
 188.8742658 146.7412563 108.8385970 188.8543866 145.3577500 107.7485358
 186.7447068 147.5909578 107.7325596 186.7216052 146.1933389 108.7448530
 186.7363425 144.6909625 106.6783618 186.7303881 146.1364737 105.6612644
 184.5092357 147.6296140 107.5714736 183.1743203 147.0466983 106.5752458
 184.4400002 147.7347926 104.5304638 185.8537742 148.1435952 105.5079588
 184.5099731 149.8605757 106.7301851 183.1095120 149.4712478 105.7266421
 184.4189548 150.1027877 103.6812164 185.8095354 150.4947619 104.6955471
 184.4670479 152.2441915 105.8655017 183.0647292 151.8507877 104.8762742
 184.3735892 152.4288654 102.8153420 185.7660986 152.8402493 103.8183350
 184.4237766 154.6297647 104.9497785 183.0280217 154.2143078 103.9503739
 185.7289208 155.2114951 102.8963196 184.2330697 156.1568999 103.0043585
 184.3328333 154.7838719 101.8883785 184.8010542 144.0929619 108.0571353
 183.2586585 144.9735741 107.8667896 184.2116181 146.8940562 109.1641875
 185.7468946 146.0327973 109.3162741 184.5087371 144.2400534 110.6080741
 183.0284861 145.1980040 110.4475076 184.1885385 147.1513520 111.5254737
 185.6475863 146.1774758 111.7051921 184.3966746 144.5808178 113.1758960
 182.9419449 145.5731222 112.9998867 184.1681845 147.5422743 113.9546315
 185.6184190 146.5548191 114.1301142 184.3877463 145.0191405 115.6781609
 182.9360939 146.0083802 115.5046289 185.6163060 146.9836533 116.6311465
 184.1679238 146.5902630 117.5752081 184.1517895 147.9724462 116.4645654
 184.7280187 145.2942503 104.5463470 183.2299227 145.0152412 105.4459758
 185.7067693 143.2309571 105.0502213 184.1810396 143.0249919 104.4378611
 184.8400450 142.6357473 107.4158266 184.5777210 141.4201249 106.2324306
 182.3925027 143.4814618 106.9009114 182.5358803 141.9126479 107.6774419
 182.4223367 140.7631193 105.5097990 182.4119557 142.2867440 104.6377341
 180.2592828 142.9290481 105.5763643 180.1804417 141.3999961 106.4687257
 180.4751578 140.1516438 104.2853392 180.5207045 141.6841868 103.4197974
 178.1618941 140.6821213 105.0815216 178.2811443 140.6480585 103.3095859
 178.2141053 142.2043538 104.1623582 192.7460000 138.4140000  98.9500000
 182.3310000 150.3780000 108.2470000 188.5988435 152.8812258 109.1858018
 187.0696208 152.8903423 109.1858476 186.5049748 151.4683454 109.1849514
 184.9767844 151.4749019 109.1843803 184.4052430 150.0750000 109.1840000
 183.0510000 150.0750000 109.1840000 185.0554269 149.0427992 109.1834242
 182.1440000 150.9790000 106.3890000 181.7729627 150.9786082 107.5224083
 181.7699482 150.3626945 109.1864991 188.9680424 152.3468952 110.0692020
 188.9687372 152.3459623 108.3042715 186.7062267 153.4299011 108.3034328
 186.7051634 153.4299044 110.0683625 186.8711151 150.9244740 110.0639224
 186.8710361 150.9259952 108.3037225 184.6095586 151.9933983 108.2921832
 184.6097875 151.9928719 110.0776810 182.6587631 150.9683881 109.1840000
 191.2770000 141.2130000 122.4900000 192.7267774 148.3142005 123.9161438
 191.2176515 148.2287848 123.8292115 190.6579757 147.3256163 124.9202000
 189.1592477 147.2700210 124.7533451 188.5401405 146.4032373 125.8263042
 187.0338159 146.5351808 125.7517451 186.4160844 145.7340000 124.6030000
 184.8700000 145.7340000 124.6030000 184.2626962 147.1607263 124.6030000
 184.7605752 148.0872788 123.4904628 184.2058467 149.5007891 123.7130727
 184.7133630 150.4642987 122.6450697 184.1614345 151.8754171 122.8658251
 184.6699850 152.8156350 121.7706482 184.1232930 154.2307717 121.9477523
 184.6358685 155.1481607 120.8498112 184.3465855 145.0841111 125.9500708
 184.6654433 145.9020878 127.1944143 184.1233105 145.2624234 128.4688002
 184.5513195 146.1263543 129.6489314 184.0350424 145.6050436 130.9835243
 184.5229724 146.5188103 132.1072741 184.0335094 146.0400682 133.4644483
 184.5213657 146.9510515 134.5783876 184.3151881 144.8633906 123.4366574
 184.6687005 143.3775280 123.3264780 184.2749989 142.4428091 124.4749994
 182.7669551 142.4581187 124.7299279 182.0924240 141.8082166 123.5394070
 180.5840011 141.8789084 123.5480254 180.1038935 141.1833068 122.2765470
 178.5958128 141.1800083 122.1844067 190.8150000 141.4810000 121.5350000
 190.7380455 141.1103397 121.5426543 190.6555611 140.7784972 123.2825043
 193.0219754 148.7156320 124.8918291 193.1621727 147.3122427 123.8264485
 190.9149720 147.8416836 122.8490912 190.7758237 149.2284455 123.9288742
 190.9212239 147.7188512 125.9072884 191.0864698 146.3167144 124.8409043
 188.9023187 146.8847845 123.7665598 188.7458951 148.2880287 124.8243450
 188.8742658 146.7412563 126.8125970 188.8543866 145.3577500 125.7225358
 186.7447068 147.5909578 125.7065596 186.7216052 146.1933389 126.7188530
 186.7363425 144.6909625 124.6523618 186.7303881 146.1364737 123.6352644
 184.5092357 147.6296140 125.5454736 183.1743203 147.0466983 124.5492458
 184.4400002 147.7347926 122.5044638 185.8537742 148.1435952 123.4819588
 184.5099731 149.8605757 124.7041851 183.1095120 149.4712478 123.7006421
 184.4189548 150.1027877 121.6552164 185.8095354 150.4947619 122.6695471
 184.4670479 152.2441915 123.8395017 183.0647292 151.8507877 122.8502742
 184.3735892 152.4288654 120.7893420 185.7660986 152.8402493 121.7923350
 184.4237766 154.6297647 122.9237785 183.0280217 154.2143078 121.9243739
 185.7289208 155.2114951 120.8703196 184.2330697 156.1568999 120.9783585
 184.3328333 154.7838719 119.8623785 184.8010542 144.0929619 126.0311353
 183.2586585 144.9735741 125.8407896 184.2116181 146.8940562 127.1381875
 185.7468946 146.0327973 127.2902741 184.5087371 144.2400534 128.5820741
 183.0284861 145.1980040 128.4215076 184.1885385 147.1513520 129.4994737
 185.6475863 146.1774758 129.6791921 184.3966746 144.5808178 131.1498960
 182.9419449 145.5731222 130.9738867 184.1681845 147.5422743 131.9286315
 185.6184190 146.5548191 132.1041142 184.3877463 145.0191405 133.6521609
 182.9360939 146.0083802 133.4786289 185.6163060 146.9836533 134.6051465
 184.1679238 146.5902630 135.5492081 184.1517895 147.9724462 134.4385654
 184.7280187 145.2942503 122.5203470 183.2299227 145.0152412 123.4199758
 185.7067693 143.2309571 123.0242213 184.1810396 143.0249919 122.4118611
 184.8400450 142.6357473 125.3898266 184.5777210 141.4201249 124.2064306
 182.3925027 143.4814618 124.8749114 182.5358803 141.9126479 125.6514419
 182.4223367 140.7631193 123.4837990 182.4119557 142.2867440 122.6117341
 180.2592828 142.9290481 123.5503643 180.1804417 141.3999961 124.4427257
 180.4751578 140.1516438 122.2593392 180.5207045 141.6841868 121.3937974
 178.1618941 140.6821213 123.0555216 178.2811443 140.6480585 121.2835859
 178.2141053 142.2043538 122.1363582 192.7460000 138.4140000 116.9240000
 182.3310000 150.3780000 126.2210000 188.5988435 152.8812258 127.1598018
 187.0696208 152.8903423 127.1598476 186.5049748 151.4683454 127.1589514
 184.9767844 151.4749019 127.1583803 184.4052430 150.0750000 127.1580000
 183.0510000 150.0750000 127.1580000 185.0554269 149.0427992 127.1574242
 182.1440000 150.9790000 124.3630000 181.7729627 150.9786082 125.4964083
 181.7699482 150.3626945 127.1604991 188.9680424 152.3468952 128.0432020
 188.9687372 152.3459623 126.2782715 186.7062267 153.4299011 126.2774328
 186.7051634 153.4299044 128.0423625 186.8711151 150.9244740 128.0379224
 186.8710361 150.9259952 126.2777225 184.6095586 151.9933983 126.2661832
 184.6097875 151.9928719 128.0516810 182.6587631 150.9683881 127.1580000
 191.2770000 141.2130000 140.4650000 192.7267774 148.3142005 141.8911438
 191.2176515 148.2287848 141.8042115 190.6579757 147.3256163 142.8952000
 189.1592477 147.2700210 142.7283451 188.5401405 146.4032373 143.8013042
 187.0338159 146.5351808 143.7267451 186.4160844 145.7340000 142.5780000
 184.8700000 145.7340000 142.5780000 184.2626962 147.1607263 142.5780000
 184.7605752 148.0872788 141.4654628 184.2058467 149.5007891 141.6880727
 184.7133630 150.4642987 140.6200697 184.1614345 151.8754171 140.8408251
 184.6699850 152.8156350 139.7456482 184.1232930 154.2307717 139.9227523
 184.6358685 155.1481607 138.8248112 184.3465855 145.0841111 143.9250708
 184.6654433 145.9020878 145.1694143 184.1233105 145.2624234 146.4438002
 184.5513195 146.1263543 147.6239314 184.0350424 145.6050436 148.9585243
 184.5229724 146.5188103 150.0822741 184.0335094 146.0400682 151.4394483
 184.5213657 146.9510515 152.5533876 184.3151881 144.8633906 141.4116574
 184.6687005 143.3775280 141.3014780 184.2749989 142.4428091 142.4499994
 182.7669551 142.4581187 142.7049279 182.0924240 141.8082166 141.5144070
 180.5840011 141.8789084 141.5230254 180.1038935 141.1833068 140.2515470
 178.5958128 141.1800083 140.1594067 190.8150000 141.4810000 139.5100000
 190.7380455 141.1103397 139.5176543 190.6555611 140.7784972 141.2575043
 193.0219754 148.7156320 142.8668291 193.1621727 147.3122427 141.8014485
 190.9149720 147.8416836 140.8240912 190.7758237 149.2284455 141.9038742
 190.9212239 147.7188512 143.8822884 191.0864698 146.3167144 142.8159043
 188.9023187 146.8847845 141.7415598 188.7458951 148.2880287 142.7993450
 188.8742658 146.7412563 144.7875970 188.8543866 145.3577500 143.6975358
 186.7447068 147.5909578 143.6815596 186.7216052 146.1933389 144.6938530
 186.7363425 144.6909625 142.6273618 186.7303881 146.1364737 141.6102644
 184.5092357 147.6296140 143.5204736 183.1743203 147.0466983 142.5242458
 184.4400002 147.7347926 140.4794638 185.8537742 148.1435952 141.4569588
 184.5099731 149.8605757 142.6791851 183.1095120 149.4712478 141.6756421
 184.4189548 150.1027877 139.6302164 185.8095354 150.4947619 140.6445471
 184.4670479 152.2441915 141.8145017 183.0647292 151.8507877 140.8252742
 184.3735892 152.4288654 138.7643420 185.7660986 152.8402493 139.7673350
 184.4237766 154.6297647 140.8987785 183.0280217 154.2143078 139.8993739
 185.7289208 155.2114951 138.8453196 184.2330697 156.1568999 138.9533585
 184.3328333 154.7838719 137.8373785 184.8010542 144.0929619 144.0061353
 183.2586585 144.9735741 143.8157896 184.2116181 146.8940562 145.1131875
 185.7468946 146.0327973 145.2652741 184.5087371 144.2400534 146.5570741
 183.0284861 145.1980040 146.3965076 184.1885385 147.1513520 147.4744737
 185.6475863 146.1774758 147.6541921 184.3966746 144.5808178 149.1248960
 182.9419449 145.5731222 148.9488867 184.1681845 147.5422743 149.9036315
 185.6184190 146.5548191 150.0791142 184.3877463 145.0191405 151.6271609
 182.9360939 146.0083802 151.4536289 185.6163060 146.9836533 152.5801465
 184.1679238 146.5902630 153.5242081 184.1517895 147.9724462 152.4135654
 184.7280187 145.2942503 140.4953470 183.2299227 145.0152412 141.3949758
 185.7067693 143.2309571 140.9992213 184.1810396 143.0249919 140.3868611
 184.8400450 142.6357473 143.3648266 184.5777210 141.4201249 142.1814306
 182.3925027 143.4814618 142.8499114 182.5358803 141.9126479 143.6264419
 182.4223367 140.7631193 141.4587990 182.4119557 142.2867440 140.5867341
 180.2592828 142.9290481 141.5253643 180.1804417 141.3999961 142.4177257
 180.4751578 140.1516438 140.2343392 180.5207045 141.6841868 139.3687974
 178.1618941 140.6821213 141.0305216 178.2811443 140.6480585 139.2585859
 178.2141053 142.2043538 140.1113582 192.7460000 138.4140000 134.8990000
 182.3310000 150.3780000 144.1960000 188.5988435 152.8812258 145.1348018
 187.0696208 152.8903423 145.1348476 186.5049748 151.4683454 145.1339514
 184.9767844 151.4749019 145.1333803 184.4052430 150.0750000 145.1330000
 183.0510000 150.0750000 145.1330000 185.0554269 149.0427992 145.1324242
 182.1440000 150.9790000 142.3380000 181.7729627 150.9786082 143.4714083
 181.7699482 150.3626945 145.1354991 188.9680424 152.3468952 146.0182020
 188.9687372 152.3459623 144.2532715 186.7062267 153.4299011 144.2524328
 186.7051634 153.4299044 146.0173625 186.8711151 150.9244740 146.0129224
 186.8710361 150.9259952 144.2527225 184.6095586 151.9933983 144.2411832
 184.6097875 151.9928719 146.0266810 182.6587631 150.9683881 145.1330000
 191.2770000 141.2130000 158.4400000 192.7267774 148.3142005 159.8661438
 191.2176515 148.2287848 159.7792115 190.6579757 147.3256163 160.8702000
 189.1592477 147.2700210 160.7033451 188.5401405 146.4032373 161.7763042
 187.0338159 146.5351808 161.7017451 186.4160844 145.7340000 160.5530000
 184.8700000 145.7340000 160.5530000 184.2626962 147.1607263 160.5530000
 184.7605752 148.0872788 159.4404628 184.2058467 149.5007891 159.6630727
 184.7133630 150.4642987 158.5950697 184.1614345 151.8754171 158.8158251
 184.6699850 152.8156350 157.7206482 184.1232930 154.2307717 157.8977523
 184.6358685 155.1481607 156.7998112 184.3465855 145.0841111 161.9000708
 184.6654433 145.9020878 163.1444143 184.1233105 145.2624234 164.4188002
 184.5513195 146.1263543 165.5989314 184.0350424 145.6050436 166.9335243
 184.5229724 146.5188103 168.0572741 184.0335094 146.0400682 169.4144483
 184.5213657 146.9510515 170.5283876 184.3151881 144.8633906 159.3866574
 184.6687005 143.3775280 159.2764780 184.2749989 142.4428091 160.4249994
 182.7669551 142.4581187 160.6799279 182.0924240 141.8082166 159.4894070
 180.5840011 141.8789084 159.4980254 180.1038935 141.1833068 158.2265470
 178.5958128 141.1800083 158.1344067 190.8150000 141.4810000 157.4850000
 190.7380455 141.1103397 157.4926543 190.6555611 140.7784972 159.2325043
 193.0219754 148.7156320 160.8418291 193.1621727 147.3122427 159.7764485
 190.9149720 147.8416836 158.7990912 190.7758237 149.2284455 159.8788742
 190.9212239 147.7188512 161.8572884 191.0864698 146.3167144 160.7909043
 188.9023187 146.8847845 159.7165598 188.7458951 148.2880287 160.7743450
 188.8742658 146.7412563 162.7625970 188.8543866 145.3577500 161.6725358
 186.7447068 147.5909578 161.6565596 186.7216052 146.1933389 162.6688530
 186.7363425 144.6909625 160.6023618 186.7303881 146.1364737 159.5852644
 184.5092357 147.6296140 161.4954736 183.1743203 147.0466983 160.4992458
 184.4400002 147.7347926 158.4544638 185.8537742 148.1435952 159.4319588
 184.5099731 149.8605757 160.6541851 183.1095120 149.4712478 159.6506421
 184.4189548 150.1027877 157.6052164 185.8095354 150.4947619 158.6195471
 184.4670479 152.2441915 159.7895017 183.0647292 151.8507877 158.8002742
 184.3735892 152.4288654 156.7393420 185.7660986 152.8402493 157.7423350
 184.4237766 154.6297647 158.8737785 183.0280217 154.2143078 157.8743739
 185.7289208 155.2114951 156.8203196 184.2330697 156.1568999 156.9283585
 184.3328333 154.7838719 155.8123785 184.8010542 144.0929619 161.9811353
 183.2586585 144.9735741 161.7907896 184.2116181 146.8940562 163.0881875
 185.7468946 146.0327973 163.2402741 184.5087371 144.2400534 164.5320741
 183.0284861 145.1980040 164.3715076 184.1885385 147.1513520 165.4494737
 185.6475863 146.1774758 165.6291921 184.3966746 144.5808178 167.0998960
 182.9419449 145.5731222 166.9238867 184.1681845 147.5422743 167.8786315
 185.6184190 146.5548191 168.0541142 184.3877463 145.0191405 169.6021609
 182.9360939 146.0083802 169.4286289 185.6163060 146.9836533 170.5551465
 184.1679238 146.5902630 171.4992081 184.1517895 147.9724462 170.3885654
 184.7280187 145.2942503 158.4703470 183.2299227 145.0152412 159.3699758
 185.7067693 143.2309571 158.9742213 184.1810396 143.0249919 158.3618611
 184.8400450 142.6357473 161.3398266 184.5777210 141.4201249 160.1564306
 182.3925027 143.4814618 160.8249114 182.5358803 141.9126479 161.6014419
 182.4223367 140.7631193 159.4337990 182.4119557 142.2867440 158.5617341
 180.2592828 142.9290481 159.5003643 180.1804417 141.3999961 160.3927257
 180.4751578 140.1516438 158.2093392 180.5207045 141.6841868 157.3437974
 178.1618941 140.6821213 159.0055216 178.2811443 140.6480585 157.2335859
 178.2141053 142.2043538 158.0863582 192.7460000 138.4140000 152.8740000
 182.3310000 150.3780000 162.1710000 188.5988435 152.8812258 163.1098018
 187.0696208 152.8903423 163.1098476 186.5049748 151.4683454 163.1089514
 184.9767844 151.4749019 163.1083803 184.4052430 150.0750000 163.1080000
 183.0510000 150.0750000 163.1080000 185.0554269 149.0427992 163.1074242
 182.1440000 150.9790000 160.3130000 181.7729627 150.9786082 161.4464083
 181.7699482 150.3626945 163.1104991 188.9680424 152.3468952 163.9932020
 188.9687372 152.3459623 162.2282715 186.7062267 153.4299011 162.2274328
 186.7051634 153.4299044 163.9923625 186.8711151 150.9244740 163.9879224
 186.8710361 150.9259952 162.2277225 184.6095586 151.9933983 162.2161832
 184.6097875 151.9928719 164.0016810 182.6587631 150.9683881 163.1080000
 191.2770000 141.2130000 176.4150000 192.7267774 148.3142005 177.8411438
 191.2176515 148.2287848 177.7542115 190.6579757 147.3256163 178.8452000
 189.1592477 147.2700210 178.6783451 188.5401405 146.4032373 179.7513042
 187.0338159 146.5351808 179.6767451 186.4160844 145.7340000 178.5280000
 184.8700000 145.7340000 178.5280000 184.2626962 147.1607263 178.5280000
 184.7605752 148.0872788 177.4154628 184.2058467 149.5007891 177.6380727
 184.7133630 150.4642987 176.5700697 184.1614345 151.8754171 176.7908251
 184.6699850 152.8156350 175.6956482 184.1232930 154.2307717 175.8727523
 184.6358685 155.1481607 174.7748112 184.3465855 145.0841111 179.8750708
 184.6654433 145.9020878 181.1194143 184.1233105 145.2624234 182.3938002
 184.5513195 146.1263543 183.5739314 184.0350424 145.6050436 184.9085243
 184.5229724 146.5188103 186.0322741 184.0335094 146.0400682 187.3894483
 184.5213657 146.9510515 188.5033876 184.3151881 144.8633906 177.3616574
 184.6687005 143.3775280 177.2514780 184.2749989 142.4428091 178.3999994
 182.7669551 142.4581187 178.6549279 182.0924240 141.8082166 177.4644070
 180.5840011 141.8789084 177.4730254 180.1038935 141.1833068 176.2015470
 178.5958128 141.1800083 176.1094067 190.8150000 141.4810000 175.4600000
 190.7380455 141.1103397 175.4676543 190.6555611 140.7784972 177.2075043
 193.0219754 148.7156320 178.8168291 193.1621727 147.3122427 177.7514485
 190.9149720 147.8416836 176.7740912 190.7758237 149.2284455 177.8538742
 190.9212239 147.7188512 179.8322884 191.0864698 146.3167144 178.7659043
 188.9023187 146.8847845 177.6915598 188.7458951 148.2880287 178.7493450
 188.8742658 146.7412563 180.7375970 188.8543866 145.3577500 179.6475358
 186.7447068 147.5909578 179.6315596 186.7216052 146.1933389 180.6438530
 186.7363425 144.6909625 178.5773618 186.7303881 146.1364737 177.5602644
 184.5092357 147.6296140 179.4704736 183.1743203 147.0466983 178.4742458
 184.4400002 147.7347926 176.4294638 185.8537742 148.1435952 177.4069588
 184.5099731 149.8605757 178.6291851 183.1095120 149.4712478 177.6256421
 184.4189548 150.1027877 175.5802164 185.8095354 150.4947619 176.5945471
 184.4670479 152.2441915 177.7645017 183.0647292 151.8507877 176.7752742
 184.3735892 152.4288654 174.7143420 185.7660986 152.8402493 175.7173350
 184.4237766 154.6297647 176.8487785 183.0280217 154.2143078 175.8493739
 185.7289208 155.2114951 174.7953196 184.2330697 156.1568999 174.9033585
 184.3328333 154.7838719 173.7873785 184.8010542 144.0929619 179.9561353
 183.2586585 144.9735741 179.7657896 184.2116181 146.8940562 181.0631875
 185.7468946 146.0327973 181.2152741 184.5087371 144.2400534 182.5070741
 183.0284861 145.1980040 182.3465076 184.1885385 147.1513520 183.4244737
 185.6475863 146.1774758 183.6041921 184.3966746 144.5808178 185.0748960
 182.9419449 145.5731222 184.8988867 184.1681845 147.5422743 185.8536315
 185.6184190 146.5548191 186.0291142 184.3877463 145.0191405 187.5771609
 182.9360939 146.0083802 187.4036289 185.6163060 146.9836533 188.5301465
 184.1679238 146.5902630 189.4742081 184.1517895 147.9724462 188.3635654
 184.7280187 145.2942503 176.4453470 183.2299227 145.0152412 177.3449758
 185.7067693 143.2309571 176.9492213 184.1810396 143.0249919 176.3368611
 184.8400450 142.6357473 179.3148266 184.5777210 141.4201249 178.1314306
 182.3925027 143.4814618 178.7999114 182.5358803 141.9126479 179.5764419
 182.4223367 140.7631193 177.4087990 182.4119557 142.2867440 176.5367341
 180.2592828 142.9290481 177.4753643 180.1804417 141.3999961 178.3677257
 180.4751578 140.1516438 176.1843392 180.5207045 141.6841868 175.3187974
 178.1618941 140.6821213 176.9805216 178.2811443 140.6480585 175.2085859
 178.2141053 142.2043538 176.0613582 192.7460000 138.4140000 170.8490000
 182.3310000 150.3780000 180.1460000 188.5988435 152.8812258 181.0848018
 187.0696208 152.8903423 181.0848476 186.5049748 151.4683454 181.0839514
 184.9767844 151.4749019 181.0833803 184.4052430 150.0750000 181.0830000
 183.0510000 150.0750000 181.0830000 185.0554269 149.0427992 181.0824242
 182.1440000 150.9790000 178.2880000 181.7729627 150.9786082 179.4214083
 181.7699482 150.3626945 181.0854991 188.9680424 152.3468952 181.9682020
 188.9687372 152.3459623 180.2032715 186.7062267 153.4299011 180.2024328
 186.7051634 153.4299044 181.9673625 186.8711151 150.9244740 181.9629224
 186.8710361 150.9259952 180.2027225 184.6095586 151.9933983 180.1911832
 184.6097875 151.9928719 181.9766810 182.6587631 150.9683881 181.0830000
 191.2770000 159.8170000  68.5660000 192.7267774 166.9182005  69.9921438
 191.2176515 166.8327848  69.9052115 190.6579757 165.9296163  70.9962000
 189.1592477 165.8740210  70.8293451 188.5401405 165.0072373  71.9023042
 187.0338159 165.1391808  71.8277451 186.4160844 164.3380000  70.6790000
 184.8700000 164.3380000  70.6790000 184.2626962 165.7647263  70.6790000
 184.7605752 166.6912788  69.5664628 184.2058467 168.1047891  69.7890727
 184.7133630 169.0682987  68.7210697 184.1614345 170.4794171  68.9418251
 184.6699850 171.4196350  67.8466482 184.1232930 172.8347717  68.0237523
 184.6358685 173.7521607  66.9258112 184.3465855 163.6881111  72.0260708
 184.6654433 164.5060878  73.2704143 184.1233105 163.8664234  74.5448002
 184.5513195 164.7303543  75.7249314 184.0350424 164.2090436  77.0595243
 184.5229724 165.1228103  78.1832741 184.0335094 164.6440682  79.5404483
 184.5213657 165.5550515  80.6543876 184.3151881 163.4673906  69.5126574
 184.6687005 161.9815280  69.4024780 184.2749989 161.0468091  70.5509994
 182.7669551 161.0621187  70.8059279 182.0924240 160.4122166  69.6154070
 180.5840011 160.4829084  69.6240254 180.1038935 159.7873068  68.3525470
 178.5958128 159.7840083  68.2604067 190.8150000 160.0850000  67.6110000
 190.7380455 159.7143397  67.6186543 190.6555611 159.3824972  69.3585043
 193.0219754 167.3196320  70.9678291 193.1621727 165.9162427  69.9024485
 190.9149720 166.4456836  68.9250912 190.7758237 167.8324455  70.0048742
 190.9212239 166.3228512  71.9832884 191.0864698 164.9207144  70.9169043
 188.9023187 165.4887845  69.8425598 188.7458951 166.8920287  70.9003450
 188.8742658 165.3452563  72.8885970 188.8543866 163.9617500  71.7985358
 186.7447068 166.1949578  71.7825596 186.7216052 164.7973389  72.7948530
 186.7363425 163.2949625  70.7283618 186.7303881 164.7404737  69.7112644
 184.5092357 166.2336140  71.6214736 183.1743203 165.6506983  70.6252458
 184.4400002 166.3387926  68.5804638 185.8537742 166.7475952  69.5579588
 184.5099731 168.4645757  70.7801851 183.1095120 168.0752478  69.7766421
 184.4189548 168.7067877  67.7312164 185.8095354 169.0987619  68.7455471
 184.4670479 170.8481915  69.9155017 183.0647292 170.4547877  68.9262742
 184.3735892 171.0328654  66.8653420 185.7660986 171.4442493  67.8683350
 184.4237766 173.2337647  68.9997785 183.0280217 172.8183078  68.0003739
 185.7289208 173.8154951  66.9463196 184.2330697 174.7608999  67.0543585
 184.3328333 173.3878719  65.9383785 184.8010542 162.6969619  72.1071353
 183.2586585 163.5775741  71.9167896 184.2116181 165.4980562  73.2141875
 185.7468946 164.6367973  73.3662741 184.5087371 162.8440534  74.6580741
 183.0284861 163.8020040  74.4975076 184.1885385 165.7553520  75.5754737
 185.6475863 164.7814758  75.7551921 184.3966746 163.1848178  77.2258960
 182.9419449 164.1771222  77.0498867 184.1681845 166.1462743  78.0046315
 185.6184190 165.1588191  78.1801142 184.3877463 163.6231405  79.7281609
 182.9360939 164.6123802  79.5546289 185.6163060 165.5876533  80.6811465
 184.1679238 165.1942630  81.6252081 184.1517895 166.5764462  80.5145654
 184.7280187 163.8982503  68.5963470 183.2299227 163.6192412  69.4959758
 185.7067693 161.8349571  69.1002213 184.1810396 161.6289919  68.4878611
 184.8400450 161.2397473  71.4658266 184.5777210 160.0241249  70.2824306
 182.3925027 162.0854618  70.9509114 182.5358803 160.5166479  71.7274419
 182.4223367 159.3671193  69.5597990 182.4119557 160.8907440  68.6877341
 180.2592828 161.5330481  69.6263643 180.1804417 160.0039961  70.5187257
 180.4751578 158.7556438  68.3353392 180.5207045 160.2881868  67.4697974
 178.1618941 159.2861213  69.1315216 178.2811443 159.2520585  67.3595859
 178.2141053 160.8083538  68.2123582 192.7460000 157.0180000  63.0000000
 182.3310000 168.9820000  72.2970000 188.5988435 171.4852258  73.2358018
 187.0696208 171.4943423  73.2358476 186.5049748 170.0723454  73.2349514
 184.9767844 170.0789019  73.2343803 184.4052430 168.6790000  73.2340000
 183.0510000 168.6790000  73.2340000 185.0554269 167.6467992  73.2334242
 182.1440000 169.5830000  70.4390000 181.7729627 169.5826082  71.5724083
 181.7699482 168.9666945  73.2364991 188.9680424 170.9508952  74.1192020
 188.9687372 170.9499623  72.3542715 186.7062267 172.0339011  72.3534328
 186.7051634 172.0339044  74.1183625 186.8711151 169.5284740  74.1139224
 186.8710361 169.5299952  72.3537225 184.6095586 170.5973983  72.3421832
 184.6097875 170.5968719  74.1276810 182.6587631 169.5723881  73.2340000
 191.2770000 159.8170000  86.5410000 192.7267774 166.9182005  87.9671438
 191.2176515 166.8327848  87.8802115 190.6579757 165.9296163  88.9712000
 189.1592477 165.8740210  88.8043451 188.5401405 165.0072373  89.8773042
 187.0338159 165.1391808  89.8027451 186.4160844 164.3380000  88.6540000
 184.8700000 164.3380000  88.6540000 184.2626962 165.7647263  88.6540000
 184.7605752 166.6912788  87.5414628 184.2058467 168.1047891  87.7640727
 184.7133630 169.0682987  86.6960697 184.1614345 170.4794171  86.9168251
 184.6699850 171.4196350  85.8216482 184.1232930 172.8347717  85.9987523
 184.6358685 173.7521607  84.9008112 184.3465855 163.6881111  90.0010708
 184.6654433 164.5060878  91.2454143 184.1233105 163.8664234  92.5198002
 184.5513195 164.7303543  93.6999314 184.0350424 164.2090436  95.0345243
 184.5229724 165.1228103  96.1582741 184.0335094 164.6440682  97.5154483
 184.5213657 165.5550515  98.6293876 184.3151881 163.4673906  87.4876574
 184.6687005 161.9815280  87.3774780 184.2749989 161.0468091  88.5259994
 182.7669551 161.0621187  88.7809279 182.0924240 160.4122166  87.5904070
 180.5840011 160.4829084  87.5990254 180.1038935 159.7873068  86.3275470
 178.5958128 159.7840083  86.2354067 190.8150000 160.0850000  85.5860000
 190.7380455 159.7143397  85.5936543 190.6555611 159.3824972  87.3335043
 193.0219754 167.3196320  88.9428291 193.1621727 165.9162427  87.8774485
 190.9149720 166.4456836  86.9000912 190.7758237 167.8324455  87.9798742
 190.9212239 166.3228512  89.9582884 191.0864698 164.9207144  88.8919043
 188.9023187 165.4887845  87.8175598 188.7458951 166.8920287  88.8753450
 188.8742658 165.3452563  90.8635970 188.8543866 163.9617500  89.7735358
 186.7447068 166.1949578  89.7575596 186.7216052 164.7973389  90.7698530
 186.7363425 163.2949625  88.7033618 186.7303881 164.7404737  87.6862644
 184.5092357 166.2336140  89.5964736 183.1743203 165.6506983  88.6002458
 184.4400002 166.3387926  86.5554638 185.8537742 166.7475952  87.5329588
 184.5099731 168.4645757  88.7551851 183.1095120 168.0752478  87.7516421
 184.4189548 168.7067877  85.7062164 185.8095354 169.0987619  86.7205471
 184.4670479 170.8481915  87.8905017 183.0647292 170.4547877  86.9012742
 184.3735892 171.0328654  84.8403420 185.7660986 171.4442493  85.8433350
 184.4237766 173.2337647  86.9747785 183.0280217 172.8183078  85.9753739
 185.7289208 173.8154951  84.9213196 184.2330697 174.7608999  85.0293585
 184.3328333 173.3878719  83.9133785 184.8010542 162.6969619  90.0821353
 183.2586585 163.5775741  89.8917896 184.2116181 165.4980562  91.1891875
 185.7468946 164.6367973  91.3412741 184.5087371 162.8440534  92.6330741
 183.0284861 163.8020040  92.4725076 184.1885385 165.7553520  93.5504737
 185.6475863 164.7814758  93.7301921 184.3966746 163.1848178  95.2008960
 182.9419449 164.1771222  95.0248867 184.1681845 166.1462743  95.9796315
 185.6184190 165.1588191  96.1551142 184.3877463 163.6231405  97.7031609
 182.9360939 164.6123802  97.5296289 185.6163060 165.5876533  98.6561465
 184.1679238 165.1942630  99.6002081 184.1517895 166.5764462  98.4895654
 184.7280187 163.8982503  86.5713470 183.2299227 163.6192412  87.4709758
 185.7067693 161.8349571  87.0752213 184.1810396 161.6289919  86.4628611
 184.8400450 161.2397473  89.4408266 184.5777210 160.0241249  88.2574306
 182.3925027 162.0854618  88.9259114 182.5358803 160.5166479  89.7024419
 182.4223367 159.3671193  87.5347990 182.4119557 160.8907440  86.6627341
 180.2592828 161.5330481  87.6013643 180.1804417 160.0039961  88.4937257
 180.4751578 158.7556438  86.3103392 180.5207045 160.2881868  85.4447974
 178.1618941 159.2861213  87.1065216 178.2811443 159.2520585  85.3345859
 178.2141053 160.8083538  86.1873582 192.7460000 157.0180000  80.9750000
 182.3310000 168.9820000  90.2720000 188.5988435 171.4852258  91.2108018
 187.0696208 171.4943423  91.2108476 186.5049748 170.0723454  91.2099514
 184.9767844 170.0789019  91.2093803 184.4052430 168.6790000  91.2090000
 183.0510000 168.6790000  91.2090000 185.0554269 167.6467992  91.2084242
 182.1440000 169.5830000  88.4140000 181.7729627 169.5826082  89.5474083
 181.7699482 168.9666945  91.2114991 188.9680424 170.9508952  92.0942020
 188.9687372 170.9499623  90.3292715 186.7062267 172.0339011  90.3284328
 186.7051634 172.0339044  92.0933625 186.8711151 169.5284740  92.0889224
 186.8710361 169.5299952  90.3287225 184.6095586 170.5973983  90.3171832
 184.6097875 170.5968719  92.1026810 182.6587631 169.5723881  91.2090000
 191.2770000 159.8170000 104.5160000 192.7267774 166.9182005 105.9421438
 191.2176515 166.8327848 105.8552115 190.6579757 165.9296163 106.9462000
 189.1592477 165.8740210 106.7793451 188.5401405 165.0072373 107.8523042
 187.0338159 165.1391808 107.7777451 186.4160844 164.3380000 106.6290000
 184.8700000 164.3380000 106.6290000 184.2626962 165.7647263 106.6290000
 184.7605752 166.6912788 105.5164628 184.2058467 168.1047891 105.7390727
 184.7133630 169.0682987 104.6710697 184.1614345 170.4794171 104.8918251
 184.6699850 171.4196350 103.7966482 184.1232930 172.8347717 103.9737523
 184.6358685 173.7521607 102.8758112 184.3465855 163.6881111 107.9760708
 184.6654433 164.5060878 109.2204143 184.1233105 163.8664234 110.4948002
 184.5513195 164.7303543 111.6749314 184.0350424 164.2090436 113.0095243
 184.5229724 165.1228103 114.1332741 184.0335094 164.6440682 115.4904483
 184.5213657 165.5550515 116.6043876 184.3151881 163.4673906 105.4626574
 184.6687005 161.9815280 105.3524780 184.2749989 161.0468091 106.5009994
 182.7669551 161.0621187 106.7559279 182.0924240 160.4122166 105.5654070
 180.5840011 160.4829084 105.5740254 180.1038935 159.7873068 104.3025470
 178.5958128 159.7840083 104.2104067 190.8150000 160.0850000 103.5610000
 190.7380455 159.7143397 103.5686543 190.6555611 159.3824972 105.3085043
 193.0219754 167.3196320 106.9178291 193.1621727 165.9162427 105.8524485
 190.9149720 166.4456836 104.8750912 190.7758237 167.8324455 105.9548742
 190.9212239 166.3228512 107.9332884 191.0864698 164.9207144 106.8669043
 188.9023187 165.4887845 105.7925598 188.7458951 166.8920287 106.8503450
 188.8742658 165.3452563 108.8385970 188.8543866 163.9617500 107.7485358
 186.7447068 166.1949578 107.7325596 186.7216052 164.7973389 108.7448530
 186.7363425 163.2949625 106.6783618 186.7303881 164.7404737 105.6612644
 184.5092357 166.2336140 107.5714736 183.1743203 165.6506983 106.5752458
 184.4400002 166.3387926 104.5304638 185.8537742 166.7475952 105.5079588
 184.5099731 168.4645757 106.7301851 183.1095120 168.0752478 105.7266421
 184.4189548 168.7067877 103.6812164 185.8095354 169.0987619 104.6955471
 184.4670479 170.8481915 105.8655017 183.0647292 170.4547877 104.8762742
 184.3735892 171.0328654 102.8153420 185.7660986 171.4442493 103.8183350
 184.4237766 173.2337647 104.9497785 183.0280217 172.8183078 103.9503739
 185.7289208 173.8154951 102.8963196 184.2330697 174.7608999 103.0043585
 184.3328333 173.3878719 101.8883785 184.8010542 162.6969619 108.0571353
 183.2586585 163.5775741 107.8667896 184.2116181 165.4980562 109.1641875
 185.7468946 164.6367973 109.3162741 184.5087371 162.8440534 110.6080741
 183.0284861 163.8020040 110.4475076 184.1885385 165.7553520 111.5254737
 185.6475863 164.7814758 111.7051921 184.3966746 163.1848178 113.1758960
 182.9419449 164.1771222 112.9998867 184.1681845 166.1462743 113.9546315
 185.6184190 165.1588191 114.1301142 184.3877463 163.6231405 115.6781609
 182.9360939 164.6123802 115.5046289 185.6163060 165.5876533 116.6311465
 184.1679238 165.1942630 117.5752081 184.1517895 166.5764462 116.4645654
 184.7280187 163.8982503 104.5463470 183.2299227 163.6192412 105.4459758
 185.7067693 161.8349571 105.0502213 184.1810396 161.6289919 104.4378611
 184.8400450 161.2397473 107.4158266 184.5777210 160.0241249 106.2324306
 182.3925027 162.0854618 106.9009114 182.5358803 160.5166479 107.6774419
 182.4223367 159.3671193 105.5097990 182.4119557 160.8907440 104.6377341
 180.2592828 161.5330481 105.5763643 180.1804417 160.0039961 106.4687257
 180.4751578 158.7556438 104.2853392 180.5207045 160.2881868 103.4197974
 178.1618941 159.2861213 105.0815216 178.2811443 159.2520585 103.3095859
 178.2141053 160.8083538 104.1623582 192.7460000 157.0180000  98.9500000
 182.3310000 168.9820000 108.2470000 188.5988435 171.4852258 109.1858018
 187.0696208 171.4943423 109.1858476 186.5049748 170.0723454 109.1849514
 184.9767844 170.0789019 109.1843803 184.4052430 168.6790000 109.1840000
 183.0510000 168.6790000 109.1840000 185.0554269 167.6467992 109.1834242
 182.1440000 169.5830000 106.3890000 181.7729627 169.5826082 107.5224083
 181.7699482 168.9666945 109.1864991 188.9680424 170.9508952 110.0692020
 188.9687372 170.9499623 108.3042715 186.7062267 172.0339011 108.3034328
 186.7051634 172.0339044 110.0683625 186.8711151 169.5284740 110.0639224
 186.8710361 169.5299952 108.3037225 184.6095586 170.5973983 108.2921832
 184.6097875 170.5968719 110.0776810 182.6587631 169.5723881 109.1840000
 191.2770000 159.8170000 122.4900000 192.7267774 166.9182005 123.9161438
 191.2176515 166.8327848 123.8292115 190.6579757 165.9296163 124.9202000
 189.1592477 165.8740210 124.7533451 188.5401405 165.0072373 125.8263042
 187.0338159 165.1391808 125.7517451 186.4160844 164.3380000 124.6030000
 184.8700000 164.3380000 124.6030000 184.2626962 165.7647263 124.6030000
 184.7605752 166.6912788 123.4904628 184.2058467 168.1047891 123.7130727
 184.7133630 169.0682987 122.6450697 184.1614345 170.4794171 122.8658251
 184.6699850 171.4196350 121.7706482 184.1232930 172.8347717 121.9477523
 184.6358685 173.7521607 120.8498112 184.3465855 163.6881111 125.9500708
 184.6654433 164.5060878 127.1944143 184.1233105 163.8664234 128.4688002
 184.5513195 164.7303543 129.6489314 184.0350424 164.2090436 130.9835243
 184.5229724 165.1228103 132.1072741 184.0335094 164.6440682 133.4644483
 184.5213657 165.5550515 134.5783876 184.3151881 163.4673906 123.4366574
 184.6687005 161.9815280 123.3264780 184.2749989 161.0468091 124.4749994
 182.7669551 161.0621187 124.7299279 182.0924240 160.4122166 123.5394070
 180.5840011 160.4829084 123.5480254 180.1038935 159.7873068 122.2765470
 178.5958128 159.7840083 122.1844067 190.8150000 160.0850000 121.5350000
 190.7380455 159.7143397 121.5426543 190.6555611 159.3824972 123.2825043
 193.0219754 167.3196320 124.8918291 193.1621727 165.9162427 123.8264485
 190.9149720 166.4456836 122.8490912 190.7758237 167.8324455 123.9288742
 190.9212239 166.3228512 125.9072884 191.0864698 164.9207144 124.8409043
 188.9023187 165.4887845 123.7665598 188.7458951 166.8920287 124.8243450
 188.8742658 165.3452563 126.8125970 188.8543866 163.9617500 125.7225358
 186.7447068 166.1949578 125.7065596 186.7216052 164.7973389 126.7188530
 186.7363425 163.2949625 124.6523618 186.7303881 164.7404737 123.6352644
 184.5092357 166.2336140 125.5454736 183.1743203 165.6506983 124.5492458
 184.4400002 166.3387926 122.5044638 185.8537742 166.7475952 123.4819588
 184.5099731 168.4645757 124.7041851 183.1095120 168.0752478 123.7006421
 184.4189548 168.7067877 121.6552164 185.8095354 169.0987619 122.6695471
 184.4670479 170.8481915 123.8395017 183.0647292 170.4547877 122.8502742
 184.3735892 171.0328654 120.7893420 185.7660986 171.4442493 121.7923350
 184.4237766 173.2337647 122.9237785 183.0280217 172.8183078 121.9243739
 185.7289208 173.8154951 120.8703196 184.2330697 174.7608999 120.9783585
 184.3328333 173.3878719 119.8623785 184.8010542 162.6969619 126.0311353
 183.2586585 163.5775741 125.8407896 184.2116181 165.4980562 127.1381875
 185.7468946 164.6367973 127.2902741 184.5087371 162.8440534 128.5820741
 183.0284861 163.8020040 128.4215076 184.1885385 165.7553520 129.4994737
 185.6475863 164.7814758 129.6791921 184.3966746 163.1848178 131.1498960
 182.9419449 164.1771222 130.9738867 184.1681845 166.1462743 131.9286315
 185.6184190 165.1588191 132.1041142 184.3877463 163.6231405 133.6521609
 182.9360939 164.6123802 133.4786289 185.6163060 165.5876533 134.6051465
 184.1679238 165.1942630 135.5492081 184.1517895 166.5764462 134.4385654
 184.7280187 163.8982503 122.5203470 183.2299227 163.6192412 123.4199758
 185.7067693 161.8349571 123.0242213 184.1810396 161.6289919 122.4118611
 184.8400450 161.2397473 125.3898266 184.5777210 160.0241249 124.2064306
 182.3925027 162.0854618 124.8749114 182.5358803 160.5166479 125.6514419
 182.4223367 159.3671193 123.4837990 182.4119557 160.8907440 122.6117341
 180.2592828 161.5330481 123.5503643 180.1804417 160.0039961 124.4427257
 180.4751578 158.7556438 122.2593392 180.5207045 160.2881868 121.3937974
 178.1618941 159.2861213 123.0555216 178.2811443 159.2520585 121.2835859
 178.2141053 160.8083538 122.1363582 192.7460000 157.0180000 116.9240000
 182.3310000 168.9820000 126.2210000 188.5988435 171.4852258 127.1598018
 187.0696208 171.4943423 127.1598476 186.5049748 170.0723454 127.1589514
 184.9767844 170.0789019 127.1583803 184.4052430 168.6790000 127.1580000
 183.0510000 168.6790000 127.1580000 185.0554269 167.6467992 127.1574242
 182.1440000 169.5830000 124.3630000 181.7729627 169.5826082 125.4964083
 181.7699482 168.9666945 127.1604991 188.9680424 170.9508952 128.0432020
 188.9687372 170.9499623 126.2782715 186.7062267 172.0339011 126.2774328
 186.7051634 172.0339044 128.0423625 186.8711151 169.5284740 128.0379224
 186.8710361 169.5299952 126.2777225 184.6095586 170.5973983 126.2661832
 184.6097875 170.5968719 128.0516810 182.6587631 169.5723881 127.1580000
 191.2770000 159.8170000 140.4650000 192.7267774 166.9182005 141.8911438
 191.2176515 166.8327848 141.8042115 190.6579757 165.9296163 142.8952000
 189.1592477 165.8740210 142.7283451 188.5401405 165.0072373 143.8013042
 187.0338159 165.1391808 143.7267451 186.4160844 164.3380000 142.5780000
 184.8700000 164.3380000 142.5780000 184.2626962 165.7647263 142.5780000
 184.7605752 166.6912788 141.4654628 184.2058467 168.1047891 141.6880727
 184.7133630 169.0682987 140.6200697 184.1614345 170.4794171 140.8408251
 184.6699850 171.4196350 139.7456482 184.1232930 172.8347717 139.9227523
 184.6358685 173.7521607 138.8248112 184.3465855 163.6881111 143.9250708
 184.6654433 164.5060878 145.1694143 184.1233105 163.8664234 146.4438002
 184.5513195 164.7303543 147.6239314 184.0350424 164.2090436 148.9585243
 184.5229724 165.1228103 150.0822741 184.0335094 164.6440682 151.4394483
 184.5213657 165.5550515 152.5533876 184.3151881 163.4673906 141.4116574
 184.6687005 161.9815280 141.3014780 184.2749989 161.0468091 142.4499994
 182.7669551 161.0621187 142.7049279 182.0924240 160.4122166 141.5144070
 180.5840011 160.4829084 141.5230254 180.1038935 159.7873068 140.2515470
 178.5958128 159.7840083 140.1594067 190.8150000 160.0850000 139.5100000
 190.7380455 159.7143397 139.5176543 190.6555611 159.3824972 141.2575043
 193.0219754 167.3196320 142.8668291 193.1621727 165.9162427 141.8014485
 190.9149720 166.4456836 140.8240912 190.7758237 167.8324455 141.9038742
 190.9212239 166.3228512 143.8822884 191.0864698 164.9207144 142.8159043
 188.9023187 165.4887845 141.7415598 188.7458951 166.8920287 142.7993450
 188.8742658 165.3452563 144.7875970 188.8543866 163.9617500 143.6975358
 186.7447068 166.1949578 143.6815596 186.7216052 164.7973389 144.6938530
 186.7363425 163.2949625 142.6273618 186.7303881 164.7404737 141.6102644
 184.5092357 166.2336140 143.5204736 183.1743203 165.6506983 142.5242458
 184.4400002 166.3387926 140.4794638 185.8537742 166.7475952 141.4569588
 184.5099731 168.4645757 142.6791851 183.1095120 168.0752478 141.6756421
 184.4189548 168.7067877 139.6302164 185.8095354 169.0987619 140.6445471
 184.4670479 170.8481915 141.8145017 183.0647292 170.4547877 140.8252742
 184.3735892 171.0328654 138.7643420 185.7660986 171.4442493 139.7673350
 184.4237766 173.2337647 140.8987785 183.0280217 172.8183078 139.8993739
 185.7289208 173.8154951 138.8453196 184.2330697 174.7608999 138.9533585
 184.3328333 173.3878719 137.8373785 184.8010542 162.6969619 144.0061353
 183.2586585 163.5775741 143.8157896 184.2116181 165.4980562 145.1131875
 185.7468946 164.6367973 145.2652741 184.5087371 162.8440534 146.5570741
 183.0284861 163.8020040 146.3965076 184.1885385 165.7553520 147.4744737
 185.6475863 164.7814758 147.6541921 184.3966746 163.1848178 149.1248960
 182.9419449 164.1771222 148.9488867 184.1681845 166.1462743 149.9036315
 185.6184190 165.1588191 150.0791142 184.3877463 163.6231405 151.6271609
 182.9360939 164.6123802 151.4536289 185.6163060 165.5876533 152.5801465
 184.1679238 165.1942630 153.5242081 184.1517895 166.5764462 152.4135654
 184.7280187 163.8982503 140.4953470 183.2299227 163.6192412 141.3949758
 185.7067693 161.8349571 140.9992213 184.1810396 161.6289919 140.3868611
 184.8400450 161.2397473 143.3648266 184.5777210 160.0241249 142.1814306
 182.3925027 162.0854618 142.8499114 182.5358803 160.5166479 143.6264419
 182.4223367 159.3671193 141.4587990 182.4119557 160.8907440 140.5867341
 180.2592828 161.5330481 141.5253643 180.1804417 160.0039961 142.4177257
 180.4751578 158.7556438 140.2343392 180.5207045 160.2881868 139.3687974
 178.1618941 159.2861213 141.0305216 178.2811443 159.2520585 139.2585859
 178.2141053 160.8083538 140.1113582 192.7460000 157.0180000 134.8990000
 182.3310000 168.9820000 144.1960000 188.5988435 171.4852258 145.1348018
 187.0696208 171.4943423 145.1348476 186.5049748 170.0723454 145.1339514
 184.9767844 170.0789019 145.1333803 184.4052430 168.6790000 145.1330000
 183.0510000 168.6790000 145.1330000 185.0554269 167.6467992 145.1324242
 182.1440000 169.5830000 142.3380000 181.7729627 169.5826082 143.4714083
 181.7699482 168.9666945 145.1354991 188.9680424 170.9508952 146.0182020
 188.9687372 170.9499623 144.2532715 186.7062267 172.0339011 144.2524328
 186.7051634 172.0339044 146.0173625 186.8711151 169.5284740 146.0129224
 186.8710361 169.5299952 144.2527225 184.6095586 170.5973983 144.2411832
 184.6097875 170.5968719 146.0266810 182.6587631 169.5723881 145.1330000
 191.2770000 159.8170000 158.4400000 192.7267774 166.9182005 159.8661438
 191.2176515 166.8327848 159.7792115 190.6579757 165.9296163 160.8702000
 189.1592477 165.8740210 160.7033451 188.5401405 165.0072373 161.7763042
 187.0338159 165.1391808 161.7017451 186.4160844 164.3380000 160.5530000
 184.8700000 164.3380000 160.5530000 184.2626962 165.7647263 160.5530000
 184.7605752 166.6912788 159.4404628 184.2058467 168.1047891 159.6630727
 184.7133630 169.0682987 158.5950697 184.1614345 170.4794171 158.8158251
 184.6699850 171.4196350 157.7206482 184.1232930 172.8347717 157.8977523
 184.6358685 173.7521607 156.7998112 184.3465855 163.6881111 161.9000708
 184.6654433 164.5060878 163.1444143 184.1233105 163.8664234 164.4188002
 184.5513195 164.7303543 165.5989314 184.0350424 164.2090436 166.9335243
 184.5229724 165.1228103 168.0572741 184.0335094 164.6440682 169.4144483
 184.5213657 165.5550515 170.5283876 184.3151881 163.4673906 159.3866574
 184.6687005 161.9815280 159.2764780 184.2749989 161.0468091 160.4249994
 182.7669551 161.0621187 160.6799279 182.0924240 160.4122166 159.4894070
 180.5840011 160.4829084 159.4980254 180.1038935 159.7873068 158.2265470
 178.5958128 159.7840083 158.1344067 190.8150000 160.0850000 157.4850000
 190.7380455 159.7143397 157.4926543 190.6555611 159.3824972 159.2325043
 193.0219754 167.3196320 160.8418291 193.1621727 165.9162427 159.7764485
 190.9149720 166.4456836 158.7990912 190.7758237 167.8324455 159.8788742
 190.9212239 166.3228512 161.8572884 191.0864698 164.9207144 160.7909043
 188.9023187 165.4887845 159.7165598 188.7458951 166.8920287 160.7743450
 188.8742658 165.3452563 162.7625970 188.8543866 163.9617500 161.6725358
 186.7447068 166.1949578 161.6565596 186.7216052 164.7973389 162.6688530
 186.7363425 163.2949625 160.6023618 186.7303881 164.7404737 159.5852644
 184.5092357 166.2336140 161.4954736 183.1743203 165.6506983 160.4992458
 184.4400002 166.3387926 158.4544638 185.8537742 166.7475952 159.4319588
 184.5099731 168.4645757 160.6541851 183.1095120 168.0752478 159.6506421
 184.4189548 168.7067877 157.6052164 185.8095354 169.0987619 158.6195471
 184.4670479 170.8481915 159.7895017 183.0647292 170.4547877 158.8002742
 184.3735892 171.0328654 156.7393420 185.7660986 171.4442493 157.7423350
 184.4237766 173.2337647 158.8737785 183.0280217 172.8183078 157.8743739
 185.7289208 173.8154951 156.8203196 184.2330697 174.7608999 156.9283585
 184.3328333 173.3878719 155.8123785 184.8010542 162.6969619 161.9811353
 183.2586585 163.5775741 161.7907896 184.2116181 165.4980562 163.0881875
 185.7468946 164.6367973 163.2402741 184.5087371 162.8440534 164.5320741
 183.0284861 163.8020040 164.3715076 184.1885385 165.7553520 165.4494737
 185.6475863 164.7814758 165.6291921 184.3966746 163.1848178 167.0998960
 182.9419449 164.1771222 166.9238867 184.1681845 166.1462743 167.8786315
 185.6184190 165.1588191 168.0541142 184.3877463 163.6231405 169.6021609
 182.9360939 164.6123802 169.4286289 185.6163060 165.5876533 170.5551465
 184.1679238 165.1942630 171.4992081 184.1517895 166.5764462 170.3885654
 184.7280187 163.8982503 158.4703470 183.2299227 163.6192412 159.3699758
 185.7067693 161.8349571 158.9742213 184.1810396 161.6289919 158.3618611
 184.8400450 161.2397473 161.3398266 184.5777210 160.0241249 160.1564306
 182.3925027 162.0854618 160.8249114 182.5358803 160.5166479 161.6014419
 182.4223367 159.3671193 159.4337990 182.4119557 160.8907440 158.5617341
 180.2592828 161.5330481 159.5003643 180.1804417 160.0039961 160.3927257
 180.4751578 158.7556438 158.2093392 180.5207045 160.2881868 157.3437974
 178.1618941 159.2861213 159.0055216 178.2811443 159.2520585 157.2335859
 178.2141053 160.8083538 158.0863582 192.7460000 157.0180000 152.8740000
 182.3310000 168.9820000 162.1710000 188.5988435 171.4852258 163.1098018
 187.0696208 171.4943423 163.1098476 186.5049748 170.0723454 163.1089514
 184.9767844 170.0789019 163.1083803 184.4052430 168.6790000 163.1080000
 183.0510000 168.6790000 163.1080000 185.0554269 167.6467992 163.1074242
 182.1440000 169.5830000 160.3130000 181.7729627 169.5826082 161.4464083
 181.7699482 168.9666945 163.1104991 188.9680424 170.9508952 163.9932020
 188.9687372 170.9499623 162.2282715 186.7062267 172.0339011 162.2274328
 186.7051634 172.0339044 163.9923625 186.8711151 169.5284740 163.9879224
 186.8710361 169.5299952 162.2277225 184.6095586 170.5973983 162.2161832
 184.6097875 170.5968719 164.0016810 182.6587631 169.5723881 163.1080000
 191.2770000 159.8170000 176.4150000 192.7267774 166.9182005 177.8411438
 191.2176515 166.8327848 177.7542115 190.6579757 165.9296163 178.8452000
 189.1592477 165.8740210 178.6783451 188.5401405 165.0072373 179.7513042
 187.0338159 165.1391808 179.6767451 186.4160844 164.3380000 178.5280000
 184.8700000 164.3380000 178.5280000 184.2626962 165.7647263 178.5280000
 184.7605752 166.6912788 177.4154628 184.2058467 168.1047891 177.6380727
 184.7133630 169.0682987 176.5700697 184.1614345 170.4794171 176.7908251
 184.6699850 171.4196350 175.6956482 184.1232930 172.8347717 175.8727523
 184.6358685 173.7521607 174.7748112 184.3465855 163.6881111 179.8750708
 184.6654433 164.5060878 181.1194143 184.1233105 163.8664234 182.3938002
 184.5513195 164.7303543 183.5739314 184.0350424 164.2090436 184.9085243
 184.5229724 165.1228103 186.0322741 184.0335094 164.6440682 187.3894483
 184.5213657 165.5550515 188.5033876 184.3151881 163.4673906 177.3616574
 184.6687005 161.9815280 177.2514780 184.2749989 161.0468091 178.3999994
 182.7669551 161.0621187 178.6549279 182.0924240 160.4122166 177.4644070
 180.5840011 160.4829084 177.4730254 180.1038935 159.7873068 176.2015470
 178.5958128 159.7840083 176.1094067 190.8150000 160.0850000 175.4600000
 190.7380455 159.7143397 175.4676543 190.6555611 159.3824972 177.2075043
 193.0219754 167.3196320 178.8168291 193.1621727 165.9162427 177.7514485
 190.9149720 166.4456836 176.7740912 190.7758237 167.8324455 177.8538742
 190.9212239 166.3228512 179.8322884 191.0864698 164.9207144 178.7659043
 188.9023187 165.4887845 177.6915598 188.7458951 166.8920287 178.7493450
 188.8742658 165.3452563 180.7375970 188.8543866 163.9617500 179.6475358
 186.7447068 166.1949578 179.6315596 186.7216052 164.7973389 180.6438530
 186.7363425 163.2949625 178.5773618 186.7303881 164.7404737 177.5602644
 184.5092357 166.2336140 179.4704736 183.1743203 165.6506983 178.4742458
 184.4400002 166.3387926 176.4294638 185.8537742 166.7475952 177.4069588
 184.5099731 168.4645757 178.6291851 183.1095120 168.0752478 177.6256421
 184.4189548 168.7067877 175.5802164 185.8095354 169.0987619 176.5945471
 184.4670479 170.8481915 177.7645017 183.0647292 170.4547877 176.7752742
 184.3735892 171.0328654 174.7143420 185.7660986 171.4442493 175.7173350
 184.4237766 173.2337647 176.8487785 183.0280217 172.8183078 175.8493739
 185.7289208 173.8154951 174.7953196 184.2330697 174.7608999 174.9033585
 184.3328333 173.3878719 173.7873785 184.8010542 162.6969619 179.9561353
 183.2586585 163.5775741 179.7657896 184.2116181 165.4980562 181.0631875
 185.7468946 164.6367973 181.2152741 184.5087371 162.8440534 182.5070741
 183.0284861 163.8020040 182.3465076 184.1885385 165.7553520 183.4244737
 185.6475863 164.7814758 183.6041921 184.3966746 163.1848178 185.0748960
 182.9419449 164.1771222 184.8988867 184.1681845 166.1462743 185.8536315
 185.6184190 165.1588191 186.0291142 184.3877463 163.6231405 187.5771609
 182.9360939 164.6123802 187.4036289 185.6163060 165.5876533 188.5301465
 184.1679238 165.1942630 189.4742081 184.1517895 166.5764462 188.3635654
 184.7280187 163.8982503 176.4453470 183.2299227 163.6192412 177.3449758
 185.7067693 161.8349571 176.9492213 184.1810396 161.6289919 176.3368611
 184.8400450 161.2397473 179.3148266 184.5777210 160.0241249 178.1314306
 182.3925027 162.0854618 178.7999114 182.5358803 160.5166479 179.5764419
 182.4223367 159.3671193 177.4087990 182.4119557 160.8907440 176.5367341
 180.2592828 161.5330481 177.4753643 180.1804417 160.0039961 178.3677257
 180.4751578 158.7556438 176.1843392 180.5207045 160.2881868 175.3187974
 178.1618941 159.2861213 176.9805216 178.2811443 159.2520585 175.2085859
 178.2141053 160.8083538 176.0613582 192.7460000 157.0180000 170.8490000
 182.3310000 168.9820000 180.1460000 188.5988435 171.4852258 181.0848018
 187.0696208 171.4943423 181.0848476 186.5049748 170.0723454 181.0839514
 184.9767844 170.0789019 181.0833803 184.4052430 168.6790000 181.0830000
 183.0510000 168.6790000 181.0830000 185.0554269 167.6467992 181.0824242
 182.1440000 169.5830000 178.2880000 181.7729627 169.5826082 179.4214083
 181.7699482 168.9666945 181.0854991 188.9680424 170.9508952 181.9682020
 188.9687372 170.9499623 180.2032715 186.7062267 172.0339011 180.2024328
 186.7051634 172.0339044 181.9673625 186.8711151 169.5284740 181.9629224
 186.8710361 169.5299952 180.2027225 184.6095586 170.5973983 180.1911832
 184.6097875 170.5968719 181.9766810 182.6587631 169.5723881 181.0830000
 191.2770000 178.4210000  68.5660000 192.7267774 185.5222005  69.9921438
 191.2176515 185.4367848  69.9052115 190.6579757 184.5336163  70.9962000
 189.1592477 184.4780210  70.8293451 188.5401405 183.6112373  71.9023042
 187.0338159 183.7431808  71.8277451 186.4160844 182.9420000  70.6790000
 184.8700000 182.9420000  70.6790000 184.2626962 184.3687263  70.6790000
 184.7605752 185.2952788  69.5664628 184.2058467 186.7087891  69.7890727
 184.7133630 187.6722987  68.7210697 184.1614345 189.0834171  68.9418251
 184.6699850 190.0236350  67.8466482 184.1232930 191.4387717  68.0237523
 184.6358685 192.3561607  66.9258112 184.3465855 182.2921111  72.0260708
 184.6654433 183.1100878  73.2704143 184.1233105 182.4704234  74.5448002
 184.5513195 183.3343543  75.7249314 184.0350424 182.8130436  77.0595243
 184.5229724 183.7268103  78.1832741 184.0335094 183.2480682  79.5404483
 184.5213657 184.1590515  80.6543876 184.3151881 182.0713906  69.5126574
 184.6687005 180.5855280  69.4024780 184.2749989 179.6508091  70.5509994
 182.7669551 179.6661187  70.8059279 182.0924240 179.0162166  69.6154070
 180.5840011 179.0869084  69.6240254 180.1038935 178.3913068  68.3525470
 178.5958128 178.3880083  68.2604067 190.8150000 178.6890000  67.6110000
 190.7380455 178.3183397  67.6186543 190.6555611 177.9864972  69.3585043
 193.0219754 185.9236320  70.9678291 193.1621727 184.5202427  69.9024485
 190.9149720 185.0496836  68.9250912 190.7758237 186.4364455  70.0048742
 190.9212239 184.9268512  71.9832884 191.0864698 183.5247144  70.9169043
 188.9023187 184.0927845  69.8425598 188.7458951 185.4960287  70.9003450
 188.8742658 183.9492563  72.8885970 188.8543866 182.5657500  71.7985358
 186.7447068 184.7989578  71.7825596 186.7216052 183.4013389  72.7948530
 186.7363425 181.8989625  70.7283618 186.7303881 183.3444737  69.7112644
 184.5092357 184.8376140  71.6214736 183.1743203 184.2546983  70.6252458
 184.4400002 184.9427926  68.5804638 185.8537742 185.3515952  69.5579588
 184.5099731 187.0685757  70.7801851 183.1095120 186.6792478  69.7766421
 184.4189548 187.3107877  67.7312164 185.8095354 187.7027619  68.7455471
 184.4670479 189.4521915  69.9155017 183.0647292 189.0587877  68.9262742
 184.3735892 189.6368654  66.8653420 185.7660986 190.0482493  67.8683350
 184.4237766 191.8377647  68.9997785 183.0280217 191.4223078  68.0003739
 185.7289208 192.4194951  66.9463196 184.2330697 193.3648999  67.0543585
 184.3328333 191.9918719  65.9383785 184.8010542 181.3009619  72.1071353
 183.2586585 182.1815741  71.9167896 184.2116181 184.1020562  73.2141875
 185.7468946 183.2407973  73.3662741 184.5087371 181.4480534  74.6580741
 183.0284861 182.4060040  74.4975076 184.1885385 184.3593520  75.5754737
 185.6475863 183.3854758  75.7551921 184.3966746 181.7888178  77.2258960
 182.9419449 182.7811222  77.0498867 184.1681845 184.7502743  78.0046315
 185.6184190 183.7628191  78.1801142 184.3877463 182.2271405  79.7281609
 182.9360939 183.2163802  79.5546289 185.6163060 184.1916533  80.6811465
 184.1679238 183.7982630  81.6252081 184.1517895 185.1804462  80.5145654
 184.7280187 182.5022503  68.5963470 183.2299227 182.2232412  69.4959758
 185.7067693 180.4389571  69.1002213 184.1810396 180.2329919  68.4878611
 184.8400450 179.8437473  71.4658266 184.5777210 178.6281249  70.2824306
 182.3925027 180.6894618  70.9509114 182.5358803 179.1206479  71.7274419
 182.4223367 177.9711193  69.5597990 182.4119557 179.4947440  68.6877341
 180.2592828 180.1370481  69.6263643 180.1804417 178.6079961  70.5187257
 180.4751578 177.3596438  68.3353392 180.5207045 178.8921868  67.4697974
 178.1618941 177.8901213  69.1315216 178.2811443 177.8560585  67.3595859
 178.2141053 179.4123538  68.2123582 192.7460000 175.6220000  63.0000000
 182.3310000 187.5860000  72.2970000 188.5988435 190.0892258  73.2358018
 187.0696208 190.0983423  73.2358476 186.5049748 188.6763454  73.2349514
 184.9767844 188.6829019  73.2343803 184.4052430 187.2830000  73.2340000
 183.0510000 187.2830000  73.2340000 185.0554269 186.2507992  73.2334242
 182.1440000 188.1870000  70.4390000 181.7729627 188.1866082  71.5724083
 181.7699482 187.5706945  73.2364991 188.9680424 189.5548952  74.1192020
 188.9687372 189.5539623  72.3542715 186.7062267 190.6379011  72.3534328
 186.7051634 190.6379044  74.1183625 186.8711151 188.1324740  74.1139224
 186.8710361 188.1339952  72.3537225 184.6095586 189.2013983  72.3421832
 184.6097875 189.2008719  74.1276810 182.6587631 188.1763881  73.2340000
 191.2770000 178.4210000  86.5410000 192.7267774 185.5222005  87.9671438
 191.2176515 185.4367848  87.8802115 190.6579757 184.5336163  88.9712000
 189.1592477 184.4780210  88.8043451 188.5401405 183.6112373  89.8773042
 187.0338159 183.7431808  89.8027451 186.4160844 182.9420000  88.6540000
 184.8700000 182.9420000  88.6540000 184.2626962 184.3687263  88.6540000
 184.7605752 185.2952788  87.5414628 184.2058467 186.7087891  87.7640727
 184.7133630 187.6722987  86.6960697 184.1614345 189.0834171  86.9168251
 184.6699850 190.0236350  85.8216482 184.1232930 191.4387717  85.9987523
 184.6358685 192.3561607  84.9008112 184.3465855 182.2921111  90.0010708
 184.6654433 183.1100878  91.2454143 184.1233105 182.4704234  92.5198002
 184.5513195 183.3343543  93.6999314 184.0350424 182.8130436  95.0345243
 184.5229724 183.7268103  96.1582741 184.0335094 183.2480682  97.5154483
 184.5213657 184.1590515  98.6293876 184.3151881 182.0713906  87.4876574
 184.6687005 180.5855280  87.3774780 184.2749989 179.6508091  88.5259994
 182.7669551 179.6661187  88.7809279 182.0924240 179.0162166  87.5904070
 180.5840011 179.0869084  87.5990254 180.1038935 178.3913068  86.3275470
 178.5958128 178.3880083  86.2354067 190.8150000 178.6890000  85.5860000
 190.7380455 178.3183397  85.5936543 190.6555611 177.9864972  87.3335043
 193.0219754 185.9236320  88.9428291 193.1621727 184.5202427  87.8774485
 190.9149720 185.0496836  86.9000912 190.7758237 186.4364455  87.9798742
 190.9212239 184.9268512  89.9582884 191.0864698 183.5247144  88.8919043
 188.9023187 184.0927845  87.8175598 188.7458951 185.4960287  88.8753450
 188.8742658 183.9492563  90.8635970 188.8543866 182.5657500  89.7735358
 186.7447068 184.7989578  89.7575596 186.7216052 183.4013389  90.7698530
 186.7363425 181.8989625  88.7033618 186.7303881 183.3444737  87.6862644
 184.5092357 184.8376140  89.5964736 183.1743203 184.2546983  88.6002458
 184.4400002 184.9427926  86.5554638 185.8537742 185.3515952  87.5329588
 184.5099731 187.0685757  88.7551851 183.1095120 186.6792478  87.7516421
 184.4189548 187.3107877  85.7062164 185.8095354 187.7027619  86.7205471
 184.4670479 189.4521915  87.8905017 183.0647292 189.0587877  86.9012742
 184.3735892 189.6368654  84.8403420 185.7660986 190.0482493  85.8433350
 184.4237766 191.8377647  86.9747785 183.0280217 191.4223078  85.9753739
 185.7289208 192.4194951  84.9213196 184.2330697 193.3648999  85.0293585
 184.3328333 191.9918719  83.9133785 184.8010542 181.3009619  90.0821353
 183.2586585 182.1815741  89.8917896 184.2116181 184.1020562  91.1891875
 185.7468946 183.2407973  91.3412741 184.5087371 181.4480534  92.6330741
 183.0284861 182.4060040  92.4725076 184.1885385 184.3593520  93.5504737
 185.6475863 183.3854758  93.7301921 184.3966746 181.7888178  95.2008960
 182.9419449 182.7811222  95.0248867 184.1681845 184.7502743  95.9796315
 185.6184190 183.7628191  96.1551142 184.3877463 182.2271405  97.7031609
 182.9360939 183.2163802  97.5296289 185.6163060 184.1916533  98.6561465
 184.1679238 183.7982630  99.6002081 184.1517895 185.1804462  98.4895654
 184.7280187 182.5022503  86.5713470 183.2299227 182.2232412  87.4709758
 185.7067693 180.4389571  87.0752213 184.1810396 180.2329919  86.4628611
 184.8400450 179.8437473  89.4408266 184.5777210 178.6281249  88.2574306
 182.3925027 180.6894618  88.9259114 182.5358803 179.1206479  89.7024419
 182.4223367 177.9711193  87.5347990 182.4119557 179.4947440  86.6627341
 180.2592828 180.1370481  87.6013643 180.1804417 178.6079961  88.4937257
 180.4751578 177.3596438  86.3103392 180.5207045 178.8921868  85.4447974
 178.1618941 177.8901213  87.1065216 178.2811443 177.8560585  85.3345859
 178.2141053 179.4123538  86.1873582 192.7460000 175.6220000  80.9750000
 182.3310000 187.5860000  90.2720000 188.5988435 190.0892258  91.2108018
 187.0696208 190.0983423  91.2108476 186.5049748 188.6763454  91.2099514
 184.9767844 188.6829019  91.2093803 184.4052430 187.2830000  91.2090000
 183.0510000 187.2830000  91.2090000 185.0554269 186.2507992  91.2084242
 182.1440000 188.1870000  88.4140000 181.7729627 188.1866082  89.5474083
 181.7699482 187.5706945  91.2114991 188.9680424 189.5548952  92.0942020
 188.9687372 189.5539623  90.3292715 186.7062267 190.6379011  90.3284328
 186.7051634 190.6379044  92.0933625 186.8711151 188.1324740  92.0889224
 186.8710361 188.1339952  90.3287225 184.6095586 189.2013983  90.3171832
 184.6097875 189.2008719  92.1026810 182.6587631 188.1763881  91.2090000
 191.2770000 178.4210000 104.5160000 192.7267774 185.5222005 105.9421438
 191.2176515 185.4367848 105.8552115 190.6579757 184.5336163 106.9462000
 189.1592477 184.4780210 106.7793451 188.5401405 183.6112373 107.8523042
 187.0338159 183.7431808 107.7777451 186.4160844 182.9420000 106.6290000
 184.8700000 182.9420000 106.6290000 184.2626962 184.3687263 106.6290000
 184.7605752 185.2952788 105.5164628 184.2058467 186.7087891 105.7390727
 184.7133630 187.6722987 104.6710697 184.1614345 189.0834171 104.8918251
 184.6699850 190.0236350 103.7966482 184.1232930 191.4387717 103.9737523
 184.6358685 192.3561607 102.8758112 184.3465855 182.2921111 107.9760708
 184.6654433 183.1100878 109.2204143 184.1233105 182.4704234 110.4948002
 184.5513195 183.3343543 111.6749314 184.0350424 182.8130436 113.0095243
 184.5229724 183.7268103 114.1332741 184.0335094 183.2480682 115.4904483
 184.5213657 184.1590515 116.6043876 184.3151881 182.0713906 105.4626574
 184.6687005 180.5855280 105.3524780 184.2749989 179.6508091 106.5009994
 182.7669551 179.6661187 106.7559279 182.0924240 179.0162166 105.5654070
 180.5840011 179.0869084 105.5740254 180.1038935 178.3913068 104.3025470
 178.5958128 178.3880083 104.2104067 190.8150000 178.6890000 103.5610000
 190.7380455 178.3183397 103.5686543 190.6555611 177.9864972 105.3085043
 193.0219754 185.9236320 106.9178291 193.1621727 184.5202427 105.8524485
 190.9149720 185.0496836 104.8750912 190.7758237 186.4364455 105.9548742
 190.9212239 184.9268512 107.9332884 191.0864698 183.5247144 106.8669043
 188.9023187 184.0927845 105.7925598 188.7458951 185.4960287 106.8503450
 188.8742658 183.9492563 108.8385970 188.8543866 182.5657500 107.7485358
 186.7447068 184.7989578 107.7325596 186.7216052 183.4013389 108.7448530
 186.7363425 181.8989625 106.6783618 186.7303881 183.3444737 105.6612644
 184.5092357 184.8376140 107.5714736 183.1743203 184.2546983 106.5752458
 184.4400002 184.9427926 104.5304638 185.8537742 185.3515952 105.5079588
 184.5099731 187.0685757 106.7301851 183.1095120 186.6792478 105.7266421
 184.4189548 187.3107877 103.6812164 185.8095354 187.7027619 104.6955471
 184.4670479 189.4521915 105.8655017 183.0647292 189.0587877 104.8762742
 184.3735892 189.6368654 102.8153420 185.7660986 190.0482493 103.8183350
 184.4237766 191.8377647 104.9497785 183.0280217 191.4223078 103.9503739
 185.7289208 192.4194951 102.8963196 184.2330697 193.3648999 103.0043585
 184.3328333 191.9918719 101.8883785 184.8010542 181.3009619 108.0571353
 183.2586585 182.1815741 107.8667896 184.2116181 184.1020562 109.1641875
 185.7468946 183.2407973 109.3162741 184.5087371 181.4480534 110.6080741
 183.0284861 182.4060040 110.4475076 184.1885385 184.3593520 111.5254737
 185.6475863 183.3854758 111.7051921 184.3966746 181.7888178 113.1758960
 182.9419449 182.7811222 112.9998867 184.1681845 184.7502743 113.9546315
 185.6184190 183.7628191 114.1301142 184.3877463 182.2271405 115.6781609
 182.9360939 183.2163802 115.5046289 185.6163060 184.1916533 116.6311465
 184.1679238 183.7982630 117.5752081 184.1517895 185.1804462 116.4645654
 184.7280187 182.5022503 104.5463470 183.2299227 182.2232412 105.4459758
 185.7067693 180.4389571 105.0502213 184.1810396 180.2329919 104.4378611
 184.8400450 179.8437473 107.4158266 184.5777210 178.6281249 106.2324306
 182.3925027 180.6894618 106.9009114 182.5358803 179.1206479 107.6774419
 182.4223367 177.9711193 105.5097990 182.4119557 179.4947440 104.6377341
 180.2592828 180.1370481 105.5763643 180.1804417 178.6079961 106.4687257
 180.4751578 177.3596438 104.2853392 180.5207045 178.8921868 103.4197974
 178.1618941 177.8901213 105.0815216 178.2811443 177.8560585 103.3095859
 178.2141053 179.4123538 104.1623582 192.7460000 175.6220000  98.9500000
 182.3310000 187.5860000 108.2470000 188.5988435 190.0892258 109.1858018
 187.0696208 190.0983423 109.1858476 186.5049748 188.6763454 109.1849514
 184.9767844 188.6829019 109.1843803 184.4052430 187.2830000 109.1840000
 183.0510000 187.2830000 109.1840000 185.0554269 186.2507992 109.1834242
 182.1440000 188.1870000 106.3890000 181.7729627 188.1866082 107.5224083
 181.7699482 187.5706945 109.1864991 188.9680424 189.5548952 110.0692020
 188.9687372 189.5539623 108.3042715 186.7062267 190.6379011 108.3034328
 186.7051634 190.6379044 110.0683625 186.8711151 188.1324740 110.0639224
 186.8710361 188.1339952 108.3037225 184.6095586 189.2013983 108.2921832
 184.6097875 189.2008719 110.0776810 182.6587631 188.1763881 109.1840000
 191.2770000 178.4210000 122.4900000 192.7267774 185.5222005 123.9161438
 191.2176515 185.4367848 123.8292115 190.6579757 184.5336163 124.9202000
 189.1592477 184.4780210 124.7533451 188.5401405 183.6112373 125.8263042
 187.0338159 183.7431808 125.7517451 186.4160844 182.9420000 124.6030000
 184.8700000 182.9420000 124.6030000 184.2626962 184.3687263 124.6030000
 184.7605752 185.2952788 123.4904628 184.2058467 186.7087891 123.7130727
 184.7133630 187.6722987 122.6450697 184.1614345 189.0834171 122.8658251
 184.6699850 190.0236350 121.7706482 184.1232930 191.4387717 121.9477523
 184.6358685 192.3561607 120.8498112 184.3465855 182.2921111 125.9500708
 184.6654433 183.1100878 127.1944143 184.1233105 182.4704234 128.4688002
 184.5513195 183.3343543 129.6489314 184.0350424 182.8130436 130.9835243
 184.5229724 183.7268103 132.1072741 184.0335094 183.2480682 133.4644483
 184.5213657 184.1590515 134.5783876 184.3151881 182.0713906 123.4366574
 184.6687005 180.5855280 123.3264780 184.2749989 179.6508091 124.4749994
 182.7669551 179.6661187 124.7299279 182.0924240 179.0162166 123.5394070
 180.5840011 179.0869084 123.5480254 180.1038935 178.3913068 122.2765470
 178.5958128 178.3880083 122.1844067 190.8150000 178.6890000 121.5350000
 190.7380455 178.3183397 121.5426543 190.6555611 177.9864972 123.2825043
 193.0219754 185.9236320 124.8918291 193.1621727 184.5202427 123.8264485
 190.9149720 185.0496836 122.8490912 190.7758237 186.4364455 123.9288742
 190.9212239 184.9268512 125.9072884 191.0864698 183.5247144 124.8409043
 188.9023187 184.0927845 123.7665598 188.7458951 185.4960287 124.8243450
 188.8742658 183.9492563 126.8125970 188.8543866 182.5657500 125.7225358
 186.7447068 184.7989578 125.7065596 186.7216052 183.4013389 126.7188530
 186.7363425 181.8989625 124.6523618 186.7303881 183.3444737 123.6352644
 184.5092357 184.8376140 125.5454736 183.1743203 184.2546983 124.5492458
 184.4400002 184.9427926 122.5044638 185.8537742 185.3515952 123.4819588
 184.5099731 187.0685757 124.7041851 183.1095120 186.6792478 123.7006421
 184.4189548 187.3107877 121.6552164 185.8095354 187.7027619 122.6695471
 184.4670479 189.4521915 123.8395017 183.0647292 189.0587877 122.8502742
 184.3735892 189.6368654 120.7893420 185.7660986 190.0482493 121.7923350
 184.4237766 191.8377647 122.9237785 183.0280217 191.4223078 121.9243739
 185.7289208 192.4194951 120.8703196 184.2330697 193.3648999 120.9783585
 184.3328333 191.9918719 119.8623785 184.8010542 181.3009619 126.0311353
 183.2586585 182.1815741 125.8407896 184.2116181 184.1020562 127.1381875
 185.7468946 183.2407973 127.2902741 184.5087371 181.4480534 128.5820741
 183.0284861 182.4060040 128.4215076 184.1885385 184.3593520 129.4994737
 185.6475863 183.3854758 129.6791921 184.3966746 181.7888178 131.1498960
 182.9419449 182.7811222 130.9738867 184.1681845 184.7502743 131.9286315
 185.6184190 183.7628191 132.1041142 184.3877463 182.2271405 133.6521609
 182.9360939 183.2163802 133.4786289 185.6163060 184.1916533 134.6051465
 184.1679238 183.7982630 135.5492081 184.1517895 185.1804462 134.4385654
 184.7280187 182.5022503 122.5203470 183.2299227 182.2232412 123.4199758
 185.7067693 180.4389571 123.0242213 184.1810396 180.2329919 122.4118611
 184.8400450 179.8437473 125.3898266 184.5777210 178.6281249 124.2064306
 182.3925027 180.6894618 124.8749114 182.5358803 179.1206479 125.6514419
 182.4223367 177.9711193 123.4837990 182.4119557 179.4947440 122.6117341
 180.2592828 180.1370481 123.5503643 180.1804417 178.6079961 124.4427257
 180.4751578 177.3596438 122.2593392 180.5207045 178.8921868 121.3937974
 178.1618941 177.8901213 123.0555216 178.2811443 177.8560585 121.2835859
 178.2141053 179.4123538 122.1363582 192.7460000 175.6220000 116.9240000
 182.3310000 187.5860000 126.2210000 188.5988435 190.0892258 127.1598018
 187.0696208 190.0983423 127.1598476 186.5049748 188.6763454 127.1589514
 184.9767844 188.6829019 127.1583803 184.4052430 187.2830000 127.1580000
 183.0510000 187.2830000 127.1580000 185.0554269 186.2507992 127.1574242
 182.1440000 188.1870000 124.3630000 181.7729627 188.1866082 125.4964083
 181.7699482 187.5706945 127.1604991 188.9680424 189.5548952 128.0432020
 188.9687372 189.5539623 126.2782715 186.7062267 190.6379011 126.2774328
 186.7051634 190.6379044 128.0423625 186.8711151 188.1324740 128.0379224
 186.8710361 188.1339952 126.2777225 184.6095586 189.2013983 126.2661832
 184.6097875 189.2008719 128.0516810 182.6587631 188.1763881 127.1580000
 191.2770000 178.4210000 140.4650000 192.7267774 185.5222005 141.8911438
 191.2176515 185.4367848 141.8042115 190.6579757 184.5336163 142.8952000
 189.1592477 184.4780210 142.7283451 188.5401405 183.6112373 143.8013042
 187.0338159 183.7431808 143.7267451 186.4160844 182.9420000 142.5780000
 184.8700000 182.9420000 142.5780000 184.2626962 184.3687263 142.5780000
 184.7605752 185.2952788 141.4654628 184.2058467 186.7087891 141.6880727
 184.7133630 187.6722987 140.6200697 184.1614345 189.0834171 140.8408251
 184.6699850 190.0236350 139.7456482 184.1232930 191.4387717 139.9227523
 184.6358685 192.3561607 138.8248112 184.3465855 182.2921111 143.9250708
 184.6654433 183.1100878 145.1694143 184.1233105 182.4704234 146.4438002
 184.5513195 183.3343543 147.6239314 184.0350424 182.8130436 148.9585243
 184.5229724 183.7268103 150.0822741 184.0335094 183.2480682 151.4394483
 184.5213657 184.1590515 152.5533876 184.3151881 182.0713906 141.4116574
 184.6687005 180.5855280 141.3014780 184.2749989 179.6508091 142.4499994
 182.7669551 179.6661187 142.7049279 182.0924240 179.0162166 141.5144070
 180.5840011 179.0869084 141.5230254 180.1038935 178.3913068 140.2515470
 178.5958128 178.3880083 140.1594067 190.8150000 178.6890000 139.5100000
 190.7380455 178.3183397 139.5176543 190.6555611 177.9864972 141.2575043
 193.0219754 185.9236320 142.8668291 193.1621727 184.5202427 141.8014485
 190.9149720 185.0496836 140.8240912 190.7758237 186.4364455 141.9038742
 190.9212239 184.9268512 143.8822884 191.0864698 183.5247144 142.8159043
 188.9023187 184.0927845 141.7415598 188.7458951 185.4960287 142.7993450
 188.8742658 183.9492563 144.7875970 188.8543866 182.5657500 143.6975358
 186.7447068 184.7989578 143.6815596 186.7216052 183.4013389 144.6938530
 186.7363425 181.8989625 142.6273618 186.7303881 183.3444737 141.6102644
 184.5092357 184.8376140 143.5204736 183.1743203 184.2546983 142.5242458
 184.4400002 184.9427926 140.4794638 185.8537742 185.3515952 141.4569588
 184.5099731 187.0685757 142.6791851 183.1095120 186.6792478 141.6756421
 184.4189548 187.3107877 139.6302164 185.8095354 187.7027619 140.6445471
 184.4670479 189.4521915 141.8145017 183.0647292 189.0587877 140.8252742
 184.3735892 189.6368654 138.7643420 185.7660986 190.0482493 139.7673350
 184.4237766 191.8377647 140.8987785 183.0280217 191.4223078 139.8993739
 185.7289208 192.4194951 138.8453196 184.2330697 193.3648999 138.9533585
 184.3328333 191.9918719 137.8373785 184.8010542 181.3009619 144.0061353
 183.2586585 182.1815741 143.8157896 184.2116181 184.1020562 145.1131875
 185.7468946 183.2407973 145.2652741 184.5087371 181.4480534 146.5570741
 183.0284861 182.4060040 146.3965076 184.1885385 184.3593520 147.4744737
 185.6475863 183.3854758 147.6541921 184.3966746 181.7888178 149.1248960
 182.9419449 182.7811222 148.9488867 184.1681845 184.7502743 149.9036315
 185.6184190 183.7628191 150.0791142 184.3877463 182.2271405 151.6271609
 182.9360939 183.2163802 151.4536289 185.6163060 184.1916533 152.5801465
 184.1679238 183.7982630 153.5242081 184.1517895 185.1804462 152.4135654
 184.7280187 182.5022503 140.4953470 183.2299227 182.2232412 141.3949758
 185.7067693 180.4389571 140.9992213 184.1810396 180.2329919 140.3868611
 184.8400450 179.8437473 143.3648266 184.5777210 178.6281249 142.1814306
 182.3925027 180.6894618 142.8499114 182.5358803 179.1206479 143.6264419
 182.4223367 177.9711193 141.4587990 182.4119557 179.4947440 140.5867341
 180.2592828 180.1370481 141.5253643 180.1804417 178.6079961 142.4177257
 180.4751578 177.3596438 140.2343392 180.5207045 178.8921868 139.3687974
 178.1618941 177.8901213 141.0305216 178.2811443 177.8560585 139.2585859
 178.2141053 179.4123538 140.1113582 192.7460000 175.6220000 134.8990000
 182.3310000 187.5860000 144.1960000 188.5988435 190.0892258 145.1348018
 187.0696208 190.0983423 145.1348476 186.5049748 188.6763454 145.1339514
 184.9767844 188.6829019 145.1333803 184.4052430 187.2830000 145.1330000
 183.0510000 187.2830000 145.1330000 185.0554269 186.2507992 145.1324242
 182.1440000 188.1870000 142.3380000 181.7729627 188.1866082 143.4714083
 181.7699482 187.5706945 145.1354991 188.9680424 189.5548952 146.0182020
 188.9687372 189.5539623 144.2532715 186.7062267 190.6379011 144.2524328
 186.7051634 190.6379044 146.0173625 186.8711151 188.1324740 146.0129224
 186.8710361 188.1339952 144.2527225 184.6095586 189.2013983 144.2411832
 184.6097875 189.2008719 146.0266810 182.6587631 188.1763881 145.1330000
 191.2770000 178.4210000 158.4400000 192.7267774 185.5222005 159.8661438
 191.2176515 185.4367848 159.7792115 190.6579757 184.5336163 160.8702000
 189.1592477 184.4780210 160.7033451 188.5401405 183.6112373 161.7763042
 187.0338159 183.7431808 161.7017451 186.4160844 182.9420000 160.5530000
 184.8700000 182.9420000 160.5530000 184.2626962 184.3687263 160.5530000
 184.7605752 185.2952788 159.4404628 184.2058467 186.7087891 159.6630727
 184.7133630 187.6722987 158.5950697 184.1614345 189.0834171 158.8158251
 184.6699850 190.0236350 157.7206482 184.1232930 191.4387717 157.8977523
 184.6358685 192.3561607 156.7998112 184.3465855 182.2921111 161.9000708
 184.6654433 183.1100878 163.1444143 184.1233105 182.4704234 164.4188002
 184.5513195 183.3343543 165.5989314 184.0350424 182.8130436 166.9335243
 184.5229724 183.7268103 168.0572741 184.0335094 183.2480682 169.4144483
 184.5213657 184.1590515 170.5283876 184.3151881 182.0713906 159.3866574
 184.6687005 180.5855280 159.2764780 184.2749989 179.6508091 160.4249994
 182.7669551 179.6661187 160.6799279 182.0924240 179.0162166 159.4894070
 180.5840011 179.0869084 159.4980254 180.1038935 178.3913068 158.2265470
 178.5958128 178.3880083 158.1344067 190.8150000 178.6890000 157.4850000
 190.7380455 178.3183397 157.4926543 190.6555611 177.9864972 159.2325043
 193.0219754 185.9236320 160.8418291 193.1621727 184.5202427 159.7764485
 190.9149720 185.0496836 158.7990912 190.7758237 186.4364455 159.8788742
 190.9212239 184.9268512 161.8572884 191.0864698 183.5247144 160.7909043
 188.9023187 184.0927845 159.7165598 188.7458951 185.4960287 160.7743450
 188.8742658 183.9492563 162.7625970 188.8543866 182.5657500 161.6725358
 186.7447068 184.7989578 161.6565596 186.7216052 183.4013389 162.6688530
 186.7363425 181.8989625 160.6023618 186.7303881 183.3444737 159.5852644
 184.5092357 184.8376140 161.4954736 183.1743203 184.2546983 160.4992458
 184.4400002 184.9427926 158.4544638 185.8537742 185.3515952 159.4319588
 184.5099731 187.0685757 160.6541851 183.1095120 186.6792478 159.6506421
 184.4189548 187.3107877 157.6052164 185.8095354 187.7027619 158.6195471
 184.4670479 189.4521915 159.7895017 183.0647292 189.0587877 158.8002742
 184.3735892 189.6368654 156.7393420 185.7660986 190.0482493 157.7423350
 184.4237766 191.8377647 158.8737785 183.0280217 191.4223078 157.8743739
 185.7289208 192.4194951 156.8203196 184.2330697 193.3648999 156.9283585
 184.3328333 191.9918719 155.8123785 184.8010542 181.3009619 161.9811353
 183.2586585 182.1815741 161.7907896 184.2116181 184.1020562 163.0881875
 185.7468946 183.2407973 163.2402741 184.5087371 181.4480534 164.5320741
 183.0284861 182.4060040 164.3715076 184.1885385 184.3593520 165.4494737
 185.6475863 183.3854758 165.6291921 184.3966746 181.7888178 167.0998960
 182.9419449 182.7811222 166.9238867 184.1681845 184.7502743 167.8786315
 185.6184190 183.7628191 168.0541142 184.3877463 182.2271405 169.6021609
 182.9360939 183.2163802 169.4286289 185.6163060 184.1916533 170.5551465
 184.1679238 183.7982630 171.4992081 184.1517895 185.1804462 170.3885654
 184.7280187 182.5022503 158.4703470 183.2299227 182.2232412 159.3699758
 185.7067693 180.4389571 158.9742213 184.1810396 180.2329919 158.3618611
 184.8400450 179.8437473 161.3398266 184.5777210 178.6281249 160.1564306
 182.3925027 180.6894618 160.8249114 182.5358803 179.1206479 161.6014419
 182.4223367 177.9711193 159.4337990 182.4119557 179.4947440 158.5617341
 180.2592828 180.1370481 159.5003643 180.1804417 178.6079961 160.3927257
 180.4751578 177.3596438 158.2093392 180.5207045 178.8921868 157.3437974
 178.1618941 177.8901213 159.0055216 178.2811443 177.8560585 157.2335859
 178.2141053 179.4123538 158.0863582 192.7460000 175.6220000 152.8740000
 182.3310000 187.5860000 162.1710000 188.5988435 190.0892258 163.1098018
 187.0696208 190.0983423 163.1098476 186.5049748 188.6763454 163.1089514
 184.9767844 188.6829019 163.1083803 184.4052430 187.2830000 163.1080000
 183.0510000 187.2830000 163.1080000 185.0554269 186.2507992 163.1074242
 182.1440000 188.1870000 160.3130000 181.7729627 188.1866082 161.4464083
 181.7699482 187.5706945 163.1104991 188.9680424 189.5548952 163.9932020
 188.9687372 189.5539623 162.2282715 186.7062267 190.6379011 162.2274328
 186.7051634 190.6379044 163.9923625 186.8711151 188.1324740 163.9879224
 186.8710361 188.1339952 162.2277225 184.6095586 189.2013983 162.2161832
 184.6097875 189.2008719 164.0016810 182.6587631 188.1763881 163.1080000
 191.2770000 178.4210000 176.4150000 192.7267774 185.5222005 177.8411438
 191.2176515 185.4367848 177.7542115 190.6579757 184.5336163 178.8452000
 189.1592477 184.4780210 178.6783451 188.5401405 183.6112373 179.7513042
 187.0338159 183.7431808 179.6767451 186.4160844 182.9420000 178.5280000
 184.8700000 182.9420000 178.5280000 184.2626962 184.3687263 178.5280000
 184.7605752 185.2952788 177.4154628 184.2058467 186.7087891 177.6380727
 184.7133630 187.6722987 176.5700697 184.1614345 189.0834171 176.7908251
 184.6699850 190.0236350 175.6956482 184.1232930 191.4387717 175.8727523
 184.6358685 192.3561607 174.7748112 184.3465855 182.2921111 179.8750708
 184.6654433 183.1100878 181.1194143 184.1233105 182.4704234 182.3938002
 184.5513195 183.3343543 183.5739314 184.0350424 182.8130436 184.9085243
 184.5229724 183.7268103 186.0322741 184.0335094 183.2480682 187.3894483
 184.5213657 184.1590515 188.5033876 184.3151881 182.0713906 177.3616574
 184.6687005 180.5855280 177.2514780 184.2749989 179.6508091 178.3999994
 182.7669551 179.6661187 178.6549279 182.0924240 179.0162166 177.4644070
 180.5840011 179.0869084 177.4730254 180.1038935 178.3913068 176.2015470
 178.5958128 178.3880083 176.1094067 190.8150000 178.6890000 175.4600000
 190.7380455 178.3183397 175.4676543 190.6555611 177.9864972 177.2075043
 193.0219754 185.9236320 178.8168291 193.1621727 184.5202427 177.7514485
 190.9149720 185.0496836 176.7740912 190.7758237 186.4364455 177.8538742
 190.9212239 184.9268512 179.8322884 191.0864698 183.5247144 178.7659043
 188.9023187 184.0927845 177.6915598 188.7458951 185.4960287 178.7493450
 188.8742658 183.9492563 180.7375970 188.8543866 182.5657500 179.6475358
 186.7447068 184.7989578 179.6315596 186.7216052 183.4013389 180.6438530
 186.7363425 181.8989625 178.5773618 186.7303881 183.3444737 177.5602644
 184.5092357 184.8376140 179.4704736 183.1743203 184.2546983 178.4742458
 184.4400002 184.9427926 176.4294638 185.8537742 185.3515952 177.4069588
 184.5099731 187.0685757 178.6291851 183.1095120 186.6792478 177.6256421
 184.4189548 187.3107877 175.5802164 185.8095354 187.7027619 176.5945471
 184.4670479 189.4521915 177.7645017 183.0647292 189.0587877 176.7752742
 184.3735892 189.6368654 174.7143420 185.7660986 190.0482493 175.7173350
 184.4237766 191.8377647 176.8487785 183.0280217 191.4223078 175.8493739
 185.7289208 192.4194951 174.7953196 184.2330697 193.3648999 174.9033585
 184.3328333 191.9918719 173.7873785 184.8010542 181.3009619 179.9561353
 183.2586585 182.1815741 179.7657896 184.2116181 184.1020562 181.0631875
 185.7468946 183.2407973 181.2152741 184.5087371 181.4480534 182.5070741
 183.0284861 182.4060040 182.3465076 184.1885385 184.3593520 183.4244737
 185.6475863 183.3854758 183.6041921 184.3966746 181.7888178 185.0748960
 182.9419449 182.7811222 184.8988867 184.1681845 184.7502743 185.8536315
 185.6184190 183.7628191 186.0291142 184.3877463 182.2271405 187.5771609
 182.9360939 183.2163802 187.4036289 185.6163060 184.1916533 188.5301465
 184.1679238 183.7982630 189.4742081 184.1517895 185.1804462 188.3635654
 184.7280187 182.5022503 176.4453470 183.2299227 182.2232412 177.3449758
 185.7067693 180.4389571 176.9492213 184.1810396 180.2329919 176.3368611
 184.8400450 179.8437473 179.3148266 184.5777210 178.6281249 178.1314306
 182.3925027 180.6894618 178.7999114 182.5358803 179.1206479 179.5764419
 182.4223367 177.9711193 177.4087990 182.4119557 179.4947440 176.5367341
 180.2592828 180.1370481 177.4753643 180.1804417 178.6079961 178.3677257
 180.4751578 177.3596438 176.1843392 180.5207045 178.8921868 175.3187974
 178.1618941 177.8901213 176.9805216 178.2811443 177.8560585 175.2085859
 178.2141053 179.4123538 176.0613582 192.7460000 175.6220000 170.8490000
 182.3310000 187.5860000 180.1460000 188.5988435 190.0892258 181.0848018
 187.0696208 190.0983423 181.0848476 186.5049748 188.6763454 181.0839514
 184.9767844 188.6829019 181.0833803 184.4052430 187.2830000 181.0830000
 183.0510000 187.2830000 181.0830000 185.0554269 186.2507992 181.0824242
 182.1440000 188.1870000 178.2880000 181.7729627 188.1866082 179.4214083
 181.7699482 187.5706945 181.0854991 188.9680424 189.5548952 181.9682020
 188.9687372 189.5539623 180.2032715 186.7062267 190.6379011 180.2024328
 186.7051634 190.6379044 181.9673625 186.8711151 188.1324740 181.9629224
 186.8710361 188.1339952 180.2027225 184.6095586 189.2013983 180.1911832
 184.6097875 189.2008719 181.9766810 182.6587631 188.1763881 181.0830000
 211.4260000  66.7990000  68.5660000 212.8757774  73.9002005  69.9921438
 211.3666515  73.8147848  69.9052115 210.8069757  72.9116163  70.9962000
 209.3082477  72.8560210  70.8293451 208.6891405  71.9892373  71.9023042
 207.1828159  72.1211808  71.8277451 206.5650844  71.3200000  70.6790000
 205.0190000  71.3200000  70.6790000 204.4116962  72.7467263  70.6790000
 204.9095752  73.6732788  69.5664628 204.3548467  75.0867891  69.7890727
 204.8623630  76.0502987  68.7210697 204.3104345  77.4614171  68.9418251
 204.8189850  78.4016350  67.8466482 204.2722930  79.8167717  68.0237523
 204.7848685  80.7341607  66.9258112 204.4955855  70.6701111  72.0260708
 204.8144433  71.4880878  73.2704143 204.2723105  70.8484234  74.5448002
 204.7003195  71.7123543  75.7249314 204.1840424  71.1910436  77.0595243
 204.6719724  72.1048103  78.1832741 204.1825094  71.6260682  79.5404483
 204.6703657  72.5370515  80.6543876 204.4641881  70.4493906  69.5126574
 204.8177005  68.9635280  69.4024780 204.4239989  68.0288091  70.5509994
 202.9159551  68.0441187  70.8059279 202.2414240  67.3942166  69.6154070
 200.7330011  67.4649084  69.6240254 200.2528935  66.7693068  68.3525470
 198.7448128  66.7660083  68.2604067 210.9640000  67.0670000  67.6110000
 210.8870455  66.6963397  67.6186543 210.8045611  66.3644972  69.3585043
 213.1709754  74.3016320  70.9678291 213.3111727  72.8982427  69.9024485
 211.0639720  73.4276836  68.9250912 210.9248237  74.8144455  70.0048742
 211.0702239  73.3048512  71.9832884 211.2354698  71.9027144  70.9169043
 209.0513187  72.4707845  69.8425598 208.8948951  73.8740287  70.9003450
 209.0232658  72.3272563  72.8885970 209.0033866  70.9437500  71.7985358
 206.8937068  73.1769578  71.7825596 206.8706052  71.7793389  72.7948530
 206.8853425  70.2769625  70.7283618 206.8793881  71.7224737  69.7112644
 204.6582357  73.2156140  71.6214736 203.3233203  72.6326983  70.6252458
 204.5890002  73.3207926  68.5804638 206.0027742  73.7295952  69.5579588
 204.6589731  75.4465757  70.7801851 203.2585120  75.0572478  69.7766421
 204.5679548  75.6887877  67.7312164 205.9585354  76.0807619  68.7455471
 204.6160479  77.8301915  69.9155017 203.2137292  77.4367877  68.9262742
 204.5225892  78.0148654  66.8653420 205.9150986  78.4262493  67.8683350
 204.5727766  80.2157647  68.9997785 203.1770217  79.8003078  68.0003739
 205.8779208  80.7974951  66.9463196 204.3820697  81.7428999  67.0543585
 204.4818333  80.3698719  65.9383785 204.9500542  69.6789619  72.1071353
 203.4076585  70.5595741  71.9167896 204.3606181  72.4800562  73.2141875
 205.8958946  71.6187973  73.3662741 204.6577371  69.8260534  74.6580741
 203.1774861  70.7840040  74.4975076 204.3375385  72.7373520  75.5754737
 205.7965863  71.7634758  75.7551921 204.5456746  70.1668178  77.2258960
 203.0909449  71.1591222  77.0498867 204.3171845  73.1282743  78.0046315
 205.7674190  72.1408191  78.1801142 204.5367463  70.6051405  79.7281609
 203.0850939  71.5943802  79.5546289 205.7653060  72.5696533  80.6811465
 204.3169238  72.1762630  81.6252081 204.3007895  73.5584462  80.5145654
 204.8770187  70.8802503  68.5963470 203.3789227  70.6012412  69.4959758
 205.8557693  68.8169571  69.1002213 204.3300396  68.6109919  68.4878611
 204.9890450  68.2217473  71.4658266 204.7267210  67.0061249  70.2824306
 202.5415027  69.0674618  70.9509114 202.6848803  67.4986479  71.7274419
 202.5713367  66.3491193  69.5597990 202.5609557  67.8727440  68.6877341
 200.4082828  68.5150481  69.6263643 200.3294417  66.9859961  70.5187257
 200.6241578  65.7376438  68.3353392 200.6697045  67.2701868  67.4697974
 198.3108941  66.2681213  69.1315216 198.4301443  66.2340585  67.3595859
 198.3631053  67.7903538  68.2123582 212.8950000  64.0000000  63.0000000
 202.4800000  75.9640000  72.2970000 208.7478435  78.4672258  73.2358018
 207.2186208  78.4763423  73.2358476 206.6539748  77.0543454  73.2349514
 205.1257844  77.0609019  73.2343803 204.5542430  75.6610000  73.2340000
 203.2000000  75.6610000  73.2340000 205.2044269  74.6287992  73.2334242
 202.2930000  76.5650000  70.4390000 201.9219627  76.5646082  71.5724083
 201.9189482  75.9486945  73.2364991 209.1170424  77.9328952  74.1192020
 209.1177372  77.9319623  72.3542715 206.8552267  79.0159011  72.3534328
 206.8541634  79.0159044  74.1183625 207.0201151  76.5104740  74.1139224
 207.0200361  76.5119952  72.3537225 204.7585586  77.5793983  72.3421832
 204.7587875  77.5788719  74.1276810 202.8077631  76.5543881  73.2340000
 211.4260000  66.7990000  86.5410000 212.8757774  73.9002005  87.9671438
 211.3666515  73.8147848  87.8802115 210.8069757  72.9116163  88.9712000
 209.3082477  72.8560210  88.8043451 208.6891405  71.9892373  89.8773042
 207.1828159  72.1211808  89.8027451 206.5650844  71.3200000  88.6540000
 205.0190000  71.3200000  88.6540000 204.4116962  72.7467263  88.6540000
 204.9095752  73.6732788  87.5414628 204.3548467  75.0867891  87.7640727
 204.8623630  76.0502987  86.6960697 204.3104345  77.4614171  86.9168251
 204.8189850  78.4016350  85.8216482 204.2722930  79.8167717  85.9987523
 204.7848685  80.7341607  84.9008112 204.4955855  70.6701111  90.0010708
 204.8144433  71.4880878  91.2454143 204.2723105  70.8484234  92.5198002
 204.7003195  71.7123543  93.6999314 204.1840424  71.1910436  95.0345243
 204.6719724  72.1048103  96.1582741 204.1825094  71.6260682  97.5154483
 204.6703657  72.5370515  98.6293876 204.4641881  70.4493906  87.4876574
 204.8177005  68.9635280  87.3774780 204.4239989  68.0288091  88.5259994
 202.9159551  68.0441187  88.7809279 202.2414240  67.3942166  87.5904070
 200.7330011  67.4649084  87.5990254 200.2528935  66.7693068  86.3275470
 198.7448128  66.7660083  86.2354067 210.9640000  67.0670000  85.5860000
 210.8870455  66.6963397  85.5936543 210.8045611  66.3644972  87.3335043
 213.1709754  74.3016320  88.9428291 213.3111727  72.8982427  87.8774485
 211.0639720  73.4276836  86.9000912 210.9248237  74.8144455  87.9798742
 211.0702239  73.3048512  89.9582884 211.2354698  71.9027144  88.8919043
 209.0513187  72.4707845  87.8175598 208.8948951  73.8740287  88.8753450
 209.0232658  72.3272563  90.8635970 209.0033866  70.9437500  89.7735358
 206.8937068  73.1769578  89.7575596 206.8706052  71.7793389  90.7698530
 206.8853425  70.2769625  88.7033618 206.8793881  71.7224737  87.6862644
 204.6582357  73.2156140  89.5964736 203.3233203  72.6326983  88.6002458
 204.5890002  73.3207926  86.5554638 206.0027742  73.7295952  87.5329588
 204.6589731  75.4465757  88.7551851 203.2585120  75.0572478  87.7516421
 204.5679548  75.6887877  85.7062164 205.9585354  76.0807619  86.7205471
 204.6160479  77.8301915  87.8905017 203.2137292  77.4367877  86.9012742
 204.5225892  78.0148654  84.8403420 205.9150986  78.4262493  85.8433350
 204.5727766  80.2157647  86.9747785 203.1770217  79.8003078  85.9753739
 205.8779208  80.7974951  84.9213196 204.3820697  81.7428999  85.0293585
 204.4818333  80.3698719  83.9133785 204.9500542  69.6789619  90.0821353
 203.4076585  70.5595741  89.8917896 204.3606181  72.4800562  91.1891875
 205.8958946  71.6187973  91.3412741 204.6577371  69.8260534  92.6330741
 203.1774861  70.7840040  92.4725076 204.3375385  72.7373520  93.5504737
 205.7965863  71.7634758  93.7301921 204.5456746  70.1668178  95.2008960
 203.0909449  71.1591222  95.0248867 204.3171845  73.1282743  95.9796315
 205.7674190  72.1408191  96.1551142 204.5367463  70.6051405  97.7031609
 203.0850939  71.5943802  97.5296289 205.7653060  72.5696533  98.6561465
 204.3169238  72.1762630  99.6002081 204.3007895  73.5584462  98.4895654
 204.8770187  70.8802503  86.5713470 203.3789227  70.6012412  87.4709758
 205.8557693  68.8169571  87.0752213 204.3300396  68.6109919  86.4628611
 204.9890450  68.2217473  89.4408266 204.7267210  67.0061249  88.2574306
 202.5415027  69.0674618  88.9259114 202.6848803  67.4986479  89.7024419
 202.5713367  66.3491193  87.5347990 202.5609557  67.8727440  86.6627341
 200.4082828  68.5150481  87.6013643 200.3294417  66.9859961  88.4937257
 200.6241578  65.7376438  86.3103392 200.6697045  67.2701868  85.4447974
 198.3108941  66.2681213  87.1065216 198.4301443  66.2340585  85.3345859
 198.3631053  67.7903538  86.1873582 212.8950000  64.0000000  80.9750000
 202.4800000  75.9640000  90.2720000 208.7478435  78.4672258  91.2108018
 207.2186208  78.4763423  91.2108476 206.6539748  77.0543454  91.2099514
 205.1257844  77.0609019  91.2093803 204.5542430  75.6610000  91.2090000
 203.2000000  75.6610000  91.2090000 205.2044269  74.6287992  91.2084242
 202.2930000  76.5650000  88.4140000 201.9219627  76.5646082  89.5474083
 201.9189482  75.9486945  91.2114991 209.1170424  77.9328952  92.0942020
 209.1177372  77.9319623  90.3292715 206.8552267  79.0159011  90.3284328
 206.8541634  79.0159044  92.0933625 207.0201151  76.5104740  92.0889224
 207.0200361  76.5119952  90.3287225 204.7585586  77.5793983  90.3171832
 204.7587875  77.5788719  92.1026810 202.8077631  76.5543881  91.2090000
 211.4260000  66.7990000 104.5160000 212.8757774  73.9002005 105.9421438
 211.3666515  73.8147848 105.8552115 210.8069757  72.9116163 106.9462000
 209.3082477  72.8560210 106.7793451 208.6891405  71.9892373 107.8523042
 207.1828159  72.1211808 107.7777451 206.5650844  71.3200000 106.6290000
 205.0190000  71.3200000 106.6290000 204.4116962  72.7467263 106.6290000
 204.9095752  73.6732788 105.5164628 204.3548467  75.0867891 105.7390727
 204.8623630  76.0502987 104.6710697 204.3104345  77.4614171 104.8918251
 204.8189850  78.4016350 103.7966482 204.2722930  79.8167717 103.9737523
 204.7848685  80.7341607 102.8758112 204.4955855  70.6701111 107.9760708
 204.8144433  71.4880878 109.2204143 204.2723105  70.8484234 110.4948002
 204.7003195  71.7123543 111.6749314 204.1840424  71.1910436 113.0095243
 204.6719724  72.1048103 114.1332741 204.1825094  71.6260682 115.4904483
 204.6703657  72.5370515 116.6043876 204.4641881  70.4493906 105.4626574
 204.8177005  68.9635280 105.3524780 204.4239989  68.0288091 106.5009994
 202.9159551  68.0441187 106.7559279 202.2414240  67.3942166 105.5654070
 200.7330011  67.4649084 105.5740254 200.2528935  66.7693068 104.3025470
 198.7448128  66.7660083 104.2104067 210.9640000  67.0670000 103.5610000
 210.8870455  66.6963397 103.5686543 210.8045611  66.3644972 105.3085043
 213.1709754  74.3016320 106.9178291 213.3111727  72.8982427 105.8524485
 211.0639720  73.4276836 104.8750912 210.9248237  74.8144455 105.9548742
 211.0702239  73.3048512 107.9332884 211.2354698  71.9027144 106.8669043
 209.0513187  72.4707845 105.7925598 208.8948951  73.8740287 106.8503450
 209.0232658  72.3272563 108.8385970 209.0033866  70.9437500 107.7485358
 206.8937068  73.1769578 107.7325596 206.8706052  71.7793389 108.7448530
 206.8853425  70.2769625 106.6783618 206.8793881  71.7224737 105.6612644
 204.6582357  73.2156140 107.5714736 203.3233203  72.6326983 106.5752458
 204.5890002  73.3207926 104.5304638 206.0027742  73.7295952 105.5079588
 204.6589731  75.4465757 106.7301851 203.2585120  75.0572478 105.7266421
 204.5679548  75.6887877 103.6812164 205.9585354  76.0807619 104.6955471
 204.6160479  77.8301915 105.8655017 203.2137292  77.4367877 104.8762742
 204.5225892  78.0148654 102.8153420 205.9150986  78.4262493 103.8183350
 204.5727766  80.2157647 104.9497785 203.1770217  79.8003078 103.9503739
 205.8779208  80.7974951 102.8963196 204.3820697  81.7428999 103.0043585
 204.4818333  80.3698719 101.8883785 204.9500542  69.6789619 108.0571353
 203.4076585  70.5595741 107.8667896 204.3606181  72.4800562 109.1641875
 205.8958946  71.6187973 109.3162741 204.6577371  69.8260534 110.6080741
 203.1774861  70.7840040 110.4475076 204.3375385  72.7373520 111.5254737
 205.7965863  71.7634758 111.7051921 204.5456746  70.1668178 113.1758960
 203.0909449  71.1591222 112.9998867 204.3171845  73.1282743 113.9546315
 205.7674190  72.1408191 114.1301142 204.5367463  70.6051405 115.6781609
 203.0850939  71.5943802 115.5046289 205.7653060  72.5696533 116.6311465
 204.3169238  72.1762630 117.5752081 204.3007895  73.5584462 116.4645654
 204.8770187  70.8802503 104.5463470 203.3789227  70.6012412 105.4459758
 205.8557693  68.8169571 105.0502213 204.3300396  68.6109919 104.4378611
 204.9890450  68.2217473 107.4158266 204.7267210  67.0061249 106.2324306
 202.5415027  69.0674618 106.9009114 202.6848803  67.4986479 107.6774419
 202.5713367  66.3491193 105.5097990 202.5609557  67.8727440 104.6377341
 200.4082828  68.5150481 105.5763643 200.3294417  66.9859961 106.4687257
 200.6241578  65.7376438 104.2853392 200.6697045  67.2701868 103.4197974
 198.3108941  66.2681213 105.0815216 198.4301443  66.2340585 103.3095859
 198.3631053  67.7903538 104.1623582 212.8950000  64.0000000  98.9500000
 202.4800000  75.9640000 108.2470000 208.7478435  78.4672258 109.1858018
 207.2186208  78.4763423 109.1858476 206.6539748  77.0543454 109.1849514
 205.1257844  77.0609019 109.1843803 204.5542430  75.6610000 109.1840000
 203.2000000  75.6610000 109.1840000 205.2044269  74.6287992 109.1834242
 202.2930000  76.5650000 106.3890000 201.9219627  76.5646082 107.5224083
 201.9189482  75.9486945 109.1864991 209.1170424  77.9328952 110.0692020
 209.1177372  77.9319623 108.3042715 206.8552267  79.0159011 108.3034328
 206.8541634  79.0159044 110.0683625 207.0201151  76.5104740 110.0639224
 207.0200361  76.5119952 108.3037225 204.7585586  77.5793983 108.2921832
 204.7587875  77.5788719 110.0776810 202.8077631  76.5543881 109.1840000
 211.4260000  66.7990000 122.4900000 212.8757774  73.9002005 123.9161438
 211.3666515  73.8147848 123.8292115 210.8069757  72.9116163 124.9202000
 209.3082477  72.8560210 124.7533451 208.6891405  71.9892373 125.8263042
 207.1828159  72.1211808 125.7517451 206.5650844  71.3200000 124.6030000
 205.0190000  71.3200000 124.6030000 204.4116962  72.7467263 124.6030000
 204.9095752  73.6732788 123.4904628 204.3548467  75.0867891 123.7130727
 204.8623630  76.0502987 122.6450697 204.3104345  77.4614171 122.8658251
 204.8189850  78.4016350 121.7706482 204.2722930  79.8167717 121.9477523
 204.7848685  80.7341607 120.8498112 204.4955855  70.6701111 125.9500708
 204.8144433  71.4880878 127.1944143 204.2723105  70.8484234 128.4688002
 204.7003195  71.7123543 129.6489314 204.1840424  71.1910436 130.9835243
 204.6719724  72.1048103 132.1072741 204.1825094  71.6260682 133.4644483
 204.6703657  72.5370515 134.5783876 204.4641881  70.4493906 123.4366574
 204.8177005  68.9635280 123.3264780 204.4239989  68.0288091 124.4749994
 202.9159551  68.0441187 124.7299279 202.2414240  67.3942166 123.5394070
 200.7330011  67.4649084 123.5480254 200.2528935  66.7693068 122.2765470
 198.7448128  66.7660083 122.1844067 210.9640000  67.0670000 121.5350000
 210.8870455  66.6963397 121.5426543 210.8045611  66.3644972 123.2825043
 213.1709754  74.3016320 124.8918291 213.3111727  72.8982427 123.8264485
 211.0639720  73.4276836 122.8490912 210.9248237  74.8144455 123.9288742
 211.0702239  73.3048512 125.9072884 211.2354698  71.9027144 124.8409043
 209.0513187  72.4707845 123.7665598 208.8948951  73.8740287 124.8243450
 209.0232658  72.3272563 126.8125970 209.0033866  70.9437500 125.7225358
 206.8937068  73.1769578 125.7065596 206.8706052  71.7793389 126.7188530
 206.8853425  70.2769625 124.6523618 206.8793881  71.7224737 123.6352644
 204.6582357  73.2156140 125.5454736 203.3233203  72.6326983 124.5492458
 204.5890002  73.3207926 122.5044638 206.0027742  73.7295952 123.4819588
 204.6589731  75.4465757 124.7041851 203.2585120  75.0572478 123.7006421
 204.5679548  75.6887877 121.6552164 205.9585354  76.0807619 122.6695471
 204.6160479  77.8301915 123.8395017 203.2137292  77.4367877 122.8502742
 204.5225892  78.0148654 120.7893420 205.9150986  78.4262493 121.7923350
 204.5727766  80.2157647 122.9237785 203.1770217  79.8003078 121.9243739
 205.8779208  80.7974951 120.8703196 204.3820697  81.7428999 120.9783585
 204.4818333  80.3698719 119.8623785 204.9500542  69.6789619 126.0311353
 203.4076585  70.5595741 125.8407896 204.3606181  72.4800562 127.1381875
 205.8958946  71.6187973 127.2902741 204.6577371  69.8260534 128.5820741
 203.1774861  70.7840040 128.4215076 204.3375385  72.7373520 129.4994737
 205.7965863  71.7634758 129.6791921 204.5456746  70.1668178 131.1498960
 203.0909449  71.1591222 130.9738867 204.3171845  73.1282743 131.9286315
 205.7674190  72.1408191 132.1041142 204.5367463  70.6051405 133.6521609
 203.0850939  71.5943802 133.4786289 205.7653060  72.5696533 134.6051465
 204.3169238  72.1762630 135.5492081 204.3007895  73.5584462 134.4385654
 204.8770187  70.8802503 122.5203470 203.3789227  70.6012412 123.4199758
 205.8557693  68.8169571 123.0242213 204.3300396  68.6109919 122.4118611
 204.9890450  68.2217473 125.3898266 204.7267210  67.0061249 124.2064306
 202.5415027  69.0674618 124.8749114 202.6848803  67.4986479 125.6514419
 202.5713367  66.3491193 123.4837990 202.5609557  67.8727440 122.6117341
 200.4082828  68.5150481 123.5503643 200.3294417  66.9859961 124.4427257
 200.6241578  65.7376438 122.2593392 200.6697045  67.2701868 121.3937974
 198.3108941  66.2681213 123.0555216 198.4301443  66.2340585 121.2835859
 198.3631053  67.7903538 122.1363582 212.8950000  64.0000000 116.9240000
 202.4800000  75.9640000 126.2210000 208.7478435  78.4672258 127.1598018
 207.2186208  78.4763423 127.1598476 206.6539748  77.0543454 127.1589514
 205.1257844  77.0609019 127.1583803 204.5542430  75.6610000 127.1580000
 203.2000000  75.6610000 127.1580000 205.2044269  74.6287992 127.1574242
 202.2930000  76.5650000 124.3630000 201.9219627  76.5646082 125.4964083
 201.9189482  75.9486945 127.1604991 209.1170424  77.9328952 128.0432020
 209.1177372  77.9319623 126.2782715 206.8552267  79.0159011 126.2774328
 206.8541634  79.0159044 128.0423625 207.0201151  76.5104740 128.0379224
 207.0200361  76.5119952 126.2777225 204.7585586  77.5793983 126.2661832
 204.7587875  77.5788719 128.0516810 202.8077631  76.5543881 127.1580000
 211.4260000  66.7990000 140.4650000 212.8757774  73.9002005 141.8911438
 211.3666515  73.8147848 141.8042115 210.8069757  72.9116163 142.8952000
 209.3082477  72.8560210 142.7283451 208.6891405  71.9892373 143.8013042
 207.1828159  72.1211808 143.7267451 206.5650844  71.3200000 142.5780000
 205.0190000  71.3200000 142.5780000 204.4116962  72.7467263 142.5780000
 204.9095752  73.6732788 141.4654628 204.3548467  75.0867891 141.6880727
 204.8623630  76.0502987 140.6200697 204.3104345  77.4614171 140.8408251
 204.8189850  78.4016350 139.7456482 204.2722930  79.8167717 139.9227523
 204.7848685  80.7341607 138.8248112 204.4955855  70.6701111 143.9250708
 204.8144433  71.4880878 145.1694143 204.2723105  70.8484234 146.4438002
 204.7003195  71.7123543 147.6239314 204.1840424  71.1910436 148.9585243
 204.6719724  72.1048103 150.0822741 204.1825094  71.6260682 151.4394483
 204.6703657  72.5370515 152.5533876 204.4641881  70.4493906 141.4116574
 204.8177005  68.9635280 141.3014780 204.4239989  68.0288091 142.4499994
 202.9159551  68.0441187 142.7049279 202.2414240  67.3942166 141.5144070
 200.7330011  67.4649084 141.5230254 200.2528935  66.7693068 140.2515470
 198.7448128  66.7660083 140.1594067 210.9640000  67.0670000 139.5100000
 210.8870455  66.6963397 139.5176543 210.8045611  66.3644972 141.2575043
 213.1709754  74.3016320 142.8668291 213.3111727  72.8982427 141.8014485
 211.0639720  73.4276836 140.8240912 210.9248237  74.8144455 141.9038742
 211.0702239  73.3048512 143.8822884 211.2354698  71.9027144 142.8159043
 209.0513187  72.4707845 141.7415598 208.8948951  73.8740287 142.7993450
 209.0232658  72.3272563 144.7875970 209.0033866  70.9437500 143.6975358
 206.8937068  73.1769578 143.6815596 206.8706052  71.7793389 144.6938530
 206.8853425  70.2769625 142.6273618 206.8793881  71.7224737 141.6102644
 204.6582357  73.2156140 143.5204736 203.3233203  72.6326983 142.5242458
 204.5890002  73.3207926 140.4794638 206.0027742  73.7295952 141.4569588
 204.6589731  75.4465757 142.6791851 203.2585120  75.0572478 141.6756421
 204.5679548  75.6887877 139.6302164 205.9585354  76.0807619 140.6445471
 204.6160479  77.8301915 141.8145017 203.2137292  77.4367877 140.8252742
 204.5225892  78.0148654 138.7643420 205.9150986  78.4262493 139.7673350
 204.5727766  80.2157647 140.8987785 203.1770217  79.8003078 139.8993739
 205.8779208  80.7974951 138.8453196 204.3820697  81.7428999 138.9533585
 204.4818333  80.3698719 137.8373785 204.9500542  69.6789619 144.0061353
 203.4076585  70.5595741 143.8157896 204.3606181  72.4800562 145.1131875
 205.8958946  71.6187973 145.2652741 204.6577371  69.8260534 146.5570741
 203.1774861  70.7840040 146.3965076 204.3375385  72.7373520 147.4744737
 205.7965863  71.7634758 147.6541921 204.5456746  70.1668178 149.1248960
 203.0909449  71.1591222 148.9488867 204.3171845  73.1282743 149.9036315
 205.7674190  72.1408191 150.0791142 204.5367463  70.6051405 151.6271609
 203.0850939  71.5943802 151.4536289 205.7653060  72.5696533 152.5801465
 204.3169238  72.1762630 153.5242081 204.3007895  73.5584462 152.4135654
 204.8770187  70.8802503 140.4953470 203.3789227  70.6012412 141.3949758
 205.8557693  68.8169571 140.9992213 204.3300396  68.6109919 140.3868611
 204.9890450  68.2217473 143.3648266 204.7267210  67.0061249 142.1814306
 202.5415027  69.0674618 142.8499114 202.6848803  67.4986479 143.6264419
 202.5713367  66.3491193 141.4587990 202.5609557  67.8727440 140.5867341
 200.4082828  68.5150481 141.5253643 200.3294417  66.9859961 142.4177257
 200.6241578  65.7376438 140.2343392 200.6697045  67.2701868 139.3687974
 198.3108941  66.2681213 141.0305216 198.4301443  66.2340585 139.2585859
 198.3631053  67.7903538 140.1113582 212.8950000  64.0000000 134.8990000
 202.4800000  75.9640000 144.1960000 208.7478435  78.4672258 145.1348018
 207.2186208  78.4763423 145.1348476 206.6539748  77.0543454 145.1339514
 205.1257844  77.0609019 145.1333803 204.5542430  75.6610000 145.1330000
 203.2000000  75.6610000 145.1330000 205.2044269  74.6287992 145.1324242
 202.2930000  76.5650000 142.3380000 201.9219627  76.5646082 143.4714083
 201.9189482  75.9486945 145.1354991 209.1170424  77.9328952 146.0182020
 209.1177372  77.9319623 144.2532715 206.8552267  79.0159011 144.2524328
 206.8541634  79.0159044 146.0173625 207.0201151  76.5104740 146.0129224
 207.0200361  76.5119952 144.2527225 204.7585586  77.5793983 144.2411832
 204.7587875  77.5788719 146.0266810 202.8077631  76.5543881 145.1330000
 211.4260000  66.7990000 158.4400000 212.8757774  73.9002005 159.8661438
 211.3666515  73.8147848 159.7792115 210.8069757  72.9116163 160.8702000
 209.3082477  72.8560210 160.7033451 208.6891405  71.9892373 161.7763042
 207.1828159  72.1211808 161.7017451 206.5650844  71.3200000 160.5530000
 205.0190000  71.3200000 160.5530000 204.4116962  72.7467263 160.5530000
 204.9095752  73.6732788 159.4404628 204.3548467  75.0867891 159.6630727
 204.8623630  76.0502987 158.5950697 204.3104345  77.4614171 158.8158251
 204.8189850  78.4016350 157.7206482 204.2722930  79.8167717 157.8977523
 204.7848685  80.7341607 156.7998112 204.4955855  70.6701111 161.9000708
 204.8144433  71.4880878 163.1444143 204.2723105  70.8484234 164.4188002
 204.7003195  71.7123543 165.5989314 204.1840424  71.1910436 166.9335243
 204.6719724  72.1048103 168.0572741 204.1825094  71.6260682 169.4144483
 204.6703657  72.5370515 170.5283876 204.4641881  70.4493906 159.3866574
 204.8177005  68.9635280 159.2764780 204.4239989  68.0288091 160.4249994
 202.9159551  68.0441187 160.6799279 202.2414240  67.3942166 159.4894070
 200.7330011  67.4649084 159.4980254 200.2528935  66.7693068 158.2265470
 198.7448128  66.7660083 158.1344067 210.9640000  67.0670000 157.4850000
 210.8870455  66.6963397 157.4926543 210.8045611  66.3644972 159.2325043
 213.1709754  74.3016320 160.8418291 213.3111727  72.8982427 159.7764485
 211.0639720  73.4276836 158.7990912 210.9248237  74.8144455 159.8788742
 211.0702239  73.3048512 161.8572884 211.2354698  71.9027144 160.7909043
 209.0513187  72.4707845 159.7165598 208.8948951  73.8740287 160.7743450
 209.0232658  72.3272563 162.7625970 209.0033866  70.9437500 161.6725358
 206.8937068  73.1769578 161.6565596 206.8706052  71.7793389 162.6688530
 206.8853425  70.2769625 160.6023618 206.8793881  71.7224737 159.5852644
 204.6582357  73.2156140 161.4954736 203.3233203  72.6326983 160.4992458
 204.5890002  73.3207926 158.4544638 206.0027742  73.7295952 159.4319588
 204.6589731  75.4465757 160.6541851 203.2585120  75.0572478 159.6506421
 204.5679548  75.6887877 157.6052164 205.9585354  76.0807619 158.6195471
 204.6160479  77.8301915 159.7895017 203.2137292  77.4367877 158.8002742
 204.5225892  78.0148654 156.7393420 205.9150986  78.4262493 157.7423350
 204.5727766  80.2157647 158.8737785 203.1770217  79.8003078 157.8743739
 205.8779208  80.7974951 156.8203196 204.3820697  81.7428999 156.9283585
 204.4818333  80.3698719 155.8123785 204.9500542  69.6789619 161.9811353
 203.4076585  70.5595741 161.7907896 204.3606181  72.4800562 163.0881875
 205.8958946  71.6187973 163.2402741 204.6577371  69.8260534 164.5320741
 203.1774861  70.7840040 164.3715076 204.3375385  72.7373520 165.4494737
 205.7965863  71.7634758 165.6291921 204.5456746  70.1668178 167.0998960
 203.0909449  71.1591222 166.9238867 204.3171845  73.1282743 167.8786315
 205.7674190  72.1408191 168.0541142 204.5367463  70.6051405 169.6021609
 203.0850939  71.5943802 169.4286289 205.7653060  72.5696533 170.5551465
 204.3169238  72.1762630 171.4992081 204.3007895  73.5584462 170.3885654
 204.8770187  70.8802503 158.4703470 203.3789227  70.6012412 159.3699758
 205.8557693  68.8169571 158.9742213 204.3300396  68.6109919 158.3618611
 204.9890450  68.2217473 161.3398266 204.7267210  67.0061249 160.1564306
 202.5415027  69.0674618 160.8249114 202.6848803  67.4986479 161.6014419
 202.5713367  66.3491193 159.4337990 202.5609557  67.8727440 158.5617341
 200.4082828  68.5150481 159.5003643 200.3294417  66.9859961 160.3927257
 200.6241578  65.7376438 158.2093392 200.6697045  67.2701868 157.3437974
 198.3108941  66.2681213 159.0055216 198.4301443  66.2340585 157.2335859
 198.3631053  67.7903538 158.0863582 212.8950000  64.0000000 152.8740000
 202.4800000  75.9640000 162.1710000 208.7478435  78.4672258 163.1098018
 207.2186208  78.4763423 163.1098476 206.6539748  77.0543454 163.1089514
 205.1257844  77.0609019 163.1083803 204.5542430  75.6610000 163.1080000
 203.2000000  75.6610000 163.1080000 205.2044269  74.6287992 163.1074242
 202.2930000  76.5650000 160.3130000 201.9219627  76.5646082 161.4464083
 201.9189482  75.9486945 163.1104991 209.1170424  77.9328952 163.9932020
 209.1177372  77.9319623 162.2282715 206.8552267  79.0159011 162.2274328
 206.8541634  79.0159044 163.9923625 207.0201151  76.5104740 163.9879224
 207.0200361  76.5119952 162.2277225 204.7585586  77.5793983 162.2161832
 204.7587875  77.5788719 164.0016810 202.8077631  76.5543881 163.1080000
 211.4260000  66.7990000 176.4150000 212.8757774  73.9002005 177.8411438
 211.3666515  73.8147848 177.7542115 210.8069757  72.9116163 178.8452000
 209.3082477  72.8560210 178.6783451 208.6891405  71.9892373 179.7513042
 207.1828159  72.1211808 179.6767451 206.5650844  71.3200000 178.5280000
 205.0190000  71.3200000 178.5280000 204.4116962  72.7467263 178.5280000
 204.9095752  73.6732788 177.4154628 204.3548467  75.0867891 177.6380727
 204.8623630  76.0502987 176.5700697 204.3104345  77.4614171 176.7908251
 204.8189850  78.4016350 175.6956482 204.2722930  79.8167717 175.8727523
 204.7848685  80.7341607 174.7748112 204.4955855  70.6701111 179.8750708
 204.8144433  71.4880878 181.1194143 204.2723105  70.8484234 182.3938002
 204.7003195  71.7123543 183.5739314 204.1840424  71.1910436 184.9085243
 204.6719724  72.1048103 186.0322741 204.1825094  71.6260682 187.3894483
 204.6703657  72.5370515 188.5033876 204.4641881  70.4493906 177.3616574
 204.8177005  68.9635280 177.2514780 204.4239989  68.0288091 178.3999994
 202.9159551  68.0441187 178.6549279 202.2414240  67.3942166 177.4644070
 200.7330011  67.4649084 177.4730254 200.2528935  66.7693068 176.2015470
 198.7448128  66.7660083 176.1094067 210.9640000  67.0670000 175.4600000
 210.8870455  66.6963397 175.4676543 210.8045611  66.3644972 177.2075043
 213.1709754  74.3016320 178.8168291 213.3111727  72.8982427 177.7514485
 211.0639720  73.4276836 176.7740912 210.9248237  74.8144455 177.8538742
 211.0702239  73.3048512 179.8322884 211.2354698  71.9027144 178.7659043
 209.0513187  72.4707845 177.6915598 208.8948951  73.8740287 178.7493450
 209.0232658  72.3272563 180.7375970 209.0033866  70.9437500 179.6475358
 206.8937068  73.1769578 179.6315596 206.8706052  71.7793389 180.6438530
 206.8853425  70.2769625 178.5773618 206.8793881  71.7224737 177.5602644
 204.6582357  73.2156140 179.4704736 203.3233203  72.6326983 178.4742458
 204.5890002  73.3207926 176.4294638 206.0027742  73.7295952 177.4069588
 204.6589731  75.4465757 178.6291851 203.2585120  75.0572478 177.6256421
 204.5679548  75.6887877 175.5802164 205.9585354  76.0807619 176.5945471
 204.6160479  77.8301915 177.7645017 203.2137292  77.4367877 176.7752742
 204.5225892  78.0148654 174.7143420 205.9150986  78.4262493 175.7173350
 204.5727766  80.2157647 176.8487785 203.1770217  79.8003078 175.8493739
 205.8779208  80.7974951 174.7953196 204.3820697  81.7428999 174.9033585
 204.4818333  80.3698719 173.7873785 204.9500542  69.6789619 179.9561353
 203.4076585  70.5595741 179.7657896 204.3606181  72.4800562 181.0631875
 205.8958946  71.6187973 181.2152741 204.6577371  69.8260534 182.5070741
 203.1774861  70.7840040 182.3465076 204.3375385  72.7373520 183.4244737
 205.7965863  71.7634758 183.6041921 204.5456746  70.1668178 185.0748960
 203.0909449  71.1591222 184.8988867 204.3171845  73.1282743 185.8536315
 205.7674190  72.1408191 186.0291142 204.5367463  70.6051405 187.5771609
 203.0850939  71.5943802 187.4036289 205.7653060  72.5696533 188.5301465
 204.3169238  72.1762630 189.4742081 204.3007895  73.5584462 188.3635654
 204.8770187  70.8802503 176.4453470 203.3789227  70.6012412 177.3449758
 205.8557693  68.8169571 176.9492213 204.3300396  68.6109919 176.3368611
 204.9890450  68.2217473 179.3148266 204.7267210  67.0061249 178.1314306
 202.5415027  69.0674618 178.7999114 202.6848803  67.4986479 179.5764419
 202.5713367  66.3491193 177.4087990 202.5609557  67.8727440 176.5367341
 200.4082828  68.5150481 177.4753643 200.3294417  66.9859961 178.3677257
 200.6241578  65.7376438 176.1843392 200.6697045  67.2701868 175.3187974
 198.3108941  66.2681213 176.9805216 198.4301443  66.2340585 175.2085859
 198.3631053  67.7903538 176.0613582 212.8950000  64.0000000 170.8490000
 202.4800000  75.9640000 180.1460000 208.7478435  78.4672258 181.0848018
 207.2186208  78.4763423 181.0848476 206.6539748  77.0543454 181.0839514
 205.1257844  77.0609019 181.0833803 204.5542430  75.6610000 181.0830000
 203.2000000  75.6610000 181.0830000 205.2044269  74.6287992 181.0824242
 202.2930000  76.5650000 178.2880000 201.9219627  76.5646082 179.4214083
 201.9189482  75.9486945 181.0854991 209.1170424  77.9328952 181.9682020
 209.1177372  77.9319623 180.2032715 206.8552267  79.0159011 180.2024328
 206.8541634  79.0159044 181.9673625 207.0201151  76.5104740 181.9629224
 207.0200361  76.5119952 180.2027225 204.7585586  77.5793983 180.1911832
 204.7587875  77.5788719 181.9766810 202.8077631  76.5543881 181.0830000
 211.4260000  85.4030000  68.5660000 212.8757774  92.5042005  69.9921438
 211.3666515  92.4187848  69.9052115 210.8069757  91.5156163  70.9962000
 209.3082477  91.4600210  70.8293451 208.6891405  90.5932373  71.9023042
 207.1828159  90.7251808  71.8277451 206.5650844  89.9240000  70.6790000
 205.0190000  89.9240000  70.6790000 204.4116962  91.3507263  70.6790000
 204.9095752  92.2772788  69.5664628 204.3548467  93.6907891  69.7890727
 204.8623630  94.6542987  68.7210697 204.3104345  96.0654171  68.9418251
 204.8189850  97.0056350  67.8466482 204.2722930  98.4207717  68.0237523
 204.7848685  99.3381607  66.9258112 204.4955855  89.2741111  72.0260708
 204.8144433  90.0920878  73.2704143 204.2723105  89.4524234  74.5448002
 204.7003195  90.3163543  75.7249314 204.1840424  89.7950436  77.0595243
 204.6719724  90.7088103  78.1832741 204.1825094  90.2300682  79.5404483
 204.6703657  91.1410515  80.6543876 204.4641881  89.0533906  69.5126574
 204.8177005  87.5675280  69.4024780 204.4239989  86.6328091  70.5509994
 202.9159551  86.6481187  70.8059279 202.2414240  85.9982166  69.6154070
 200.7330011  86.0689084  69.6240254 200.2528935  85.3733068  68.3525470
 198.7448128  85.3700083  68.2604067 210.9640000  85.6710000  67.6110000
 210.8870455  85.3003397  67.6186543 210.8045611  84.9684972  69.3585043
 213.1709754  92.9056320  70.9678291 213.3111727  91.5022427  69.9024485
 211.0639720  92.0316836  68.9250912 210.9248237  93.4184455  70.0048742
 211.0702239  91.9088512  71.9832884 211.2354698  90.5067144  70.9169043
 209.0513187  91.0747845  69.8425598 208.8948951  92.4780287  70.9003450
 209.0232658  90.9312563  72.8885970 209.0033866  89.5477500  71.7985358
 206.8937068  91.7809578  71.7825596 206.8706052  90.3833389  72.7948530
 206.8853425  88.8809625  70.7283618 206.8793881  90.3264737  69.7112644
 204.6582357  91.8196140  71.6214736 203.3233203  91.2366983  70.6252458
 204.5890002  91.9247926  68.5804638 206.0027742  92.3335952  69.5579588
 204.6589731  94.0505757  70.7801851 203.2585120  93.6612478  69.7766421
 204.5679548  94.2927877  67.7312164 205.9585354  94.6847619  68.7455471
 204.6160479  96.4341915  69.9155017 203.2137292  96.0407877  68.9262742
 204.5225892  96.6188654  66.8653420 205.9150986  97.0302493  67.8683350
 204.5727766  98.8197647  68.9997785 203.1770217  98.4043078  68.0003739
 205.8779208  99.4014951  66.9463196 204.3820697 100.3468999  67.0543585
 204.4818333  98.9738719  65.9383785 204.9500542  88.2829619  72.1071353
 203.4076585  89.1635741  71.9167896 204.3606181  91.0840562  73.2141875
 205.8958946  90.2227973  73.3662741 204.6577371  88.4300534  74.6580741
 203.1774861  89.3880040  74.4975076 204.3375385  91.3413520  75.5754737
 205.7965863  90.3674758  75.7551921 204.5456746  88.7708178  77.2258960
 203.0909449  89.7631222  77.0498867 204.3171845  91.7322743  78.0046315
 205.7674190  90.7448191  78.1801142 204.5367463  89.2091405  79.7281609
 203.0850939  90.1983802  79.5546289 205.7653060  91.1736533  80.6811465
 204.3169238  90.7802630  81.6252081 204.3007895  92.1624462  80.5145654
 204.8770187  89.4842503  68.5963470 203.3789227  89.2052412  69.4959758
 205.8557693  87.4209571  69.1002213 204.3300396  87.2149919  68.4878611
 204.9890450  86.8257473  71.4658266 204.7267210  85.6101249  70.2824306
 202.5415027  87.6714618  70.9509114 202.6848803  86.1026479  71.7274419
 202.5713367  84.9531193  69.5597990 202.5609557  86.4767440  68.6877341
 200.4082828  87.1190481  69.6263643 200.3294417  85.5899961  70.5187257
 200.6241578  84.3416438  68.3353392 200.6697045  85.8741868  67.4697974
 198.3108941  84.8721213  69.1315216 198.4301443  84.8380585  67.3595859
 198.3631053  86.3943538  68.2123582 212.8950000  82.6040000  63.0000000
 202.4800000  94.5680000  72.2970000 208.7478435  97.0712258  73.2358018
 207.2186208  97.0803423  73.2358476 206.6539748  95.6583454  73.2349514
 205.1257844  95.6649019  73.2343803 204.5542430  94.2650000  73.2340000
 203.2000000  94.2650000  73.2340000 205.2044269  93.2327992  73.2334242
 202.2930000  95.1690000  70.4390000 201.9219627  95.1686082  71.5724083
 201.9189482  94.5526945  73.2364991 209.1170424  96.5368952  74.1192020
 209.1177372  96.5359623  72.3542715 206.8552267  97.6199011  72.3534328
 206.8541634  97.6199044  74.1183625 207.0201151  95.1144740  74.1139224
 207.0200361  95.1159952  72.3537225 204.7585586  96.1833983  72.3421832
 204.7587875  96.1828719  74.1276810 202.8077631  95.1583881  73.2340000
 211.4260000  85.4030000  86.5410000 212.8757774  92.5042005  87.9671438
 211.3666515  92.4187848  87.8802115 210.8069757  91.5156163  88.9712000
 209.3082477  91.4600210  88.8043451 208.6891405  90.5932373  89.8773042
 207.1828159  90.7251808  89.8027451 206.5650844  89.9240000  88.6540000
 205.0190000  89.9240000  88.6540000 204.4116962  91.3507263  88.6540000
 204.9095752  92.2772788  87.5414628 204.3548467  93.6907891  87.7640727
 204.8623630  94.6542987  86.6960697 204.3104345  96.0654171  86.9168251
 204.8189850  97.0056350  85.8216482 204.2722930  98.4207717  85.9987523
 204.7848685  99.3381607  84.9008112 204.4955855  89.2741111  90.0010708
 204.8144433  90.0920878  91.2454143 204.2723105  89.4524234  92.5198002
 204.7003195  90.3163543  93.6999314 204.1840424  89.7950436  95.0345243
 204.6719724  90.7088103  96.1582741 204.1825094  90.2300682  97.5154483
 204.6703657  91.1410515  98.6293876 204.4641881  89.0533906  87.4876574
 204.8177005  87.5675280  87.3774780 204.4239989  86.6328091  88.5259994
 202.9159551  86.6481187  88.7809279 202.2414240  85.9982166  87.5904070
 200.7330011  86.0689084  87.5990254 200.2528935  85.3733068  86.3275470
 198.7448128  85.3700083  86.2354067 210.9640000  85.6710000  85.5860000
 210.8870455  85.3003397  85.5936543 210.8045611  84.9684972  87.3335043
 213.1709754  92.9056320  88.9428291 213.3111727  91.5022427  87.8774485
 211.0639720  92.0316836  86.9000912 210.9248237  93.4184455  87.9798742
 211.0702239  91.9088512  89.9582884 211.2354698  90.5067144  88.8919043
 209.0513187  91.0747845  87.8175598 208.8948951  92.4780287  88.8753450
 209.0232658  90.9312563  90.8635970 209.0033866  89.5477500  89.7735358
 206.8937068  91.7809578  89.7575596 206.8706052  90.3833389  90.7698530
 206.8853425  88.8809625  88.7033618 206.8793881  90.3264737  87.6862644
 204.6582357  91.8196140  89.5964736 203.3233203  91.2366983  88.6002458
 204.5890002  91.9247926  86.5554638 206.0027742  92.3335952  87.5329588
 204.6589731  94.0505757  88.7551851 203.2585120  93.6612478  87.7516421
 204.5679548  94.2927877  85.7062164 205.9585354  94.6847619  86.7205471
 204.6160479  96.4341915  87.8905017 203.2137292  96.0407877  86.9012742
 204.5225892  96.6188654  84.8403420 205.9150986  97.0302493  85.8433350
 204.5727766  98.8197647  86.9747785 203.1770217  98.4043078  85.9753739
 205.8779208  99.4014951  84.9213196 204.3820697 100.3468999  85.0293585
 204.4818333  98.9738719  83.9133785 204.9500542  88.2829619  90.0821353
 203.4076585  89.1635741  89.8917896 204.3606181  91.0840562  91.1891875
 205.8958946  90.2227973  91.3412741 204.6577371  88.4300534  92.6330741
 203.1774861  89.3880040  92.4725076 204.3375385  91.3413520  93.5504737
 205.7965863  90.3674758  93.7301921 204.5456746  88.7708178  95.2008960
 203.0909449  89.7631222  95.0248867 204.3171845  91.7322743  95.9796315
 205.7674190  90.7448191  96.1551142 204.5367463  89.2091405  97.7031609
 203.0850939  90.1983802  97.5296289 205.7653060  91.1736533  98.6561465
 204.3169238  90.7802630  99.6002081 204.3007895  92.1624462  98.4895654
 204.8770187  89.4842503  86.5713470 203.3789227  89.2052412  87.4709758
 205.8557693  87.4209571  87.0752213 204.3300396  87.2149919  86.4628611
 204.9890450  86.8257473  89.4408266 204.7267210  85.6101249  88.2574306
 202.5415027  87.6714618  88.9259114 202.6848803  86.1026479  89.7024419
 202.5713367  84.9531193  87.5347990 202.5609557  86.4767440  86.6627341
 200.4082828  87.1190481  87.6013643 200.3294417  85.5899961  88.4937257
 200.6241578  84.3416438  86.3103392 200.6697045  85.8741868  85.4447974
 198.3108941  84.8721213  87.1065216 198.4301443  84.8380585  85.3345859
 198.3631053  86.3943538  86.1873582 212.8950000  82.6040000  80.9750000
 202.4800000  94.5680000  90.2720000 208.7478435  97.0712258  91.2108018
 207.2186208  97.0803423  91.2108476 206.6539748  95.6583454  91.2099514
 205.1257844  95.6649019  91.2093803 204.5542430  94.2650000  91.2090000
 203.2000000  94.2650000  91.2090000 205.2044269  93.2327992  91.2084242
 202.2930000  95.1690000  88.4140000 201.9219627  95.1686082  89.5474083
 201.9189482  94.5526945  91.2114991 209.1170424  96.5368952  92.0942020
 209.1177372  96.5359623  90.3292715 206.8552267  97.6199011  90.3284328
 206.8541634  97.6199044  92.0933625 207.0201151  95.1144740  92.0889224
 207.0200361  95.1159952  90.3287225 204.7585586  96.1833983  90.3171832
 204.7587875  96.1828719  92.1026810 202.8077631  95.1583881  91.2090000
 211.4260000  85.4030000 104.5160000 212.8757774  92.5042005 105.9421438
 211.3666515  92.4187848 105.8552115 210.8069757  91.5156163 106.9462000
 209.3082477  91.4600210 106.7793451 208.6891405  90.5932373 107.8523042
 207.1828159  90.7251808 107.7777451 206.5650844  89.9240000 106.6290000
 205.0190000  89.9240000 106.6290000 204.4116962  91.3507263 106.6290000
 204.9095752  92.2772788 105.5164628 204.3548467  93.6907891 105.7390727
 204.8623630  94.6542987 104.6710697 204.3104345  96.0654171 104.8918251
 204.8189850  97.0056350 103.7966482 204.2722930  98.4207717 103.9737523
 204.7848685  99.3381607 102.8758112 204.4955855  89.2741111 107.9760708
 204.8144433  90.0920878 109.2204143 204.2723105  89.4524234 110.4948002
 204.7003195  90.3163543 111.6749314 204.1840424  89.7950436 113.0095243
 204.6719724  90.7088103 114.1332741 204.1825094  90.2300682 115.4904483
 204.6703657  91.1410515 116.6043876 204.4641881  89.0533906 105.4626574
 204.8177005  87.5675280 105.3524780 204.4239989  86.6328091 106.5009994
 202.9159551  86.6481187 106.7559279 202.2414240  85.9982166 105.5654070
 200.7330011  86.0689084 105.5740254 200.2528935  85.3733068 104.3025470
 198.7448128  85.3700083 104.2104067 210.9640000  85.6710000 103.5610000
 210.8870455  85.3003397 103.5686543 210.8045611  84.9684972 105.3085043
 213.1709754  92.9056320 106.9178291 213.3111727  91.5022427 105.8524485
 211.0639720  92.0316836 104.8750912 210.9248237  93.4184455 105.9548742
 211.0702239  91.9088512 107.9332884 211.2354698  90.5067144 106.8669043
 209.0513187  91.0747845 105.7925598 208.8948951  92.4780287 106.8503450
 209.0232658  90.9312563 108.8385970 209.0033866  89.5477500 107.7485358
 206.8937068  91.7809578 107.7325596 206.8706052  90.3833389 108.7448530
 206.8853425  88.8809625 106.6783618 206.8793881  90.3264737 105.6612644
 204.6582357  91.8196140 107.5714736 203.3233203  91.2366983 106.5752458
 204.5890002  91.9247926 104.5304638 206.0027742  92.3335952 105.5079588
 204.6589731  94.0505757 106.7301851 203.2585120  93.6612478 105.7266421
 204.5679548  94.2927877 103.6812164 205.9585354  94.6847619 104.6955471
 204.6160479  96.4341915 105.8655017 203.2137292  96.0407877 104.8762742
 204.5225892  96.6188654 102.8153420 205.9150986  97.0302493 103.8183350
 204.5727766  98.8197647 104.9497785 203.1770217  98.4043078 103.9503739
 205.8779208  99.4014951 102.8963196 204.3820697 100.3468999 103.0043585
 204.4818333  98.9738719 101.8883785 204.9500542  88.2829619 108.0571353
 203.4076585  89.1635741 107.8667896 204.3606181  91.0840562 109.1641875
 205.8958946  90.2227973 109.3162741 204.6577371  88.4300534 110.6080741
 203.1774861  89.3880040 110.4475076 204.3375385  91.3413520 111.5254737
 205.7965863  90.3674758 111.7051921 204.5456746  88.7708178 113.1758960
 203.0909449  89.7631222 112.9998867 204.3171845  91.7322743 113.9546315
 205.7674190  90.7448191 114.1301142 204.5367463  89.2091405 115.6781609
 203.0850939  90.1983802 115.5046289 205.7653060  91.1736533 116.6311465
 204.3169238  90.7802630 117.5752081 204.3007895  92.1624462 116.4645654
 204.8770187  89.4842503 104.5463470 203.3789227  89.2052412 105.4459758
 205.8557693  87.4209571 105.0502213 204.3300396  87.2149919 104.4378611
 204.9890450  86.8257473 107.4158266 204.7267210  85.6101249 106.2324306
 202.5415027  87.6714618 106.9009114 202.6848803  86.1026479 107.6774419
 202.5713367  84.9531193 105.5097990 202.5609557  86.4767440 104.6377341
 200.4082828  87.1190481 105.5763643 200.3294417  85.5899961 106.4687257
 200.6241578  84.3416438 104.2853392 200.6697045  85.8741868 103.4197974
 198.3108941  84.8721213 105.0815216 198.4301443  84.8380585 103.3095859
 198.3631053  86.3943538 104.1623582 212.8950000  82.6040000  98.9500000
 202.4800000  94.5680000 108.2470000 208.7478435  97.0712258 109.1858018
 207.2186208  97.0803423 109.1858476 206.6539748  95.6583454 109.1849514
 205.1257844  95.6649019 109.1843803 204.5542430  94.2650000 109.1840000
 203.2000000  94.2650000 109.1840000 205.2044269  93.2327992 109.1834242
 202.2930000  95.1690000 106.3890000 201.9219627  95.1686082 107.5224083
 201.9189482  94.5526945 109.1864991 209.1170424  96.5368952 110.0692020
 209.1177372  96.5359623 108.3042715 206.8552267  97.6199011 108.3034328
 206.8541634  97.6199044 110.0683625 207.0201151  95.1144740 110.0639224
 207.0200361  95.1159952 108.3037225 204.7585586  96.1833983 108.2921832
 204.7587875  96.1828719 110.0776810 202.8077631  95.1583881 109.1840000
 211.4260000  85.4030000 122.4900000 212.8757774  92.5042005 123.9161438
 211.3666515  92.4187848 123.8292115 210.8069757  91.5156163 124.9202000
 209.3082477  91.4600210 124.7533451 208.6891405  90.5932373 125.8263042
 207.1828159  90.7251808 125.7517451 206.5650844  89.9240000 124.6030000
 205.0190000  89.9240000 124.6030000 204.4116962  91.3507263 124.6030000
 204.9095752  92.2772788 123.4904628 204.3548467  93.6907891 123.7130727
 204.8623630  94.6542987 122.6450697 204.3104345  96.0654171 122.8658251
 204.8189850  97.0056350 121.7706482 204.2722930  98.4207717 121.9477523
 204.7848685  99.3381607 120.8498112 204.4955855  89.2741111 125.9500708
 204.8144433  90.0920878 127.1944143 204.2723105  89.4524234 128.4688002
 204.7003195  90.3163543 129.6489314 204.1840424  89.7950436 130.9835243
 204.6719724  90.7088103 132.1072741 204.1825094  90.2300682 133.4644483
 204.6703657  91.1410515 134.5783876 204.4641881  89.0533906 123.4366574
 204.8177005  87.5675280 123.3264780 204.4239989  86.6328091 124.4749994
 202.9159551  86.6481187 124.7299279 202.2414240  85.9982166 123.5394070
 200.7330011  86.0689084 123.5480254 200.2528935  85.3733068 122.2765470
 198.7448128  85.3700083 122.1844067 210.9640000  85.6710000 121.5350000
 210.8870455  85.3003397 121.5426543 210.8045611  84.9684972 123.2825043
 213.1709754  92.9056320 124.8918291 213.3111727  91.5022427 123.8264485
 211.0639720  92.0316836 122.8490912 210.9248237  93.4184455 123.9288742
 211.0702239  91.9088512 125.9072884 211.2354698  90.5067144 124.8409043
 209.0513187  91.0747845 123.7665598 208.8948951  92.4780287 124.8243450
 209.0232658  90.9312563 126.8125970 209.0033866  89.5477500 125.7225358
 206.8937068  91.7809578 125.7065596 206.8706052  90.3833389 126.7188530
 206.8853425  88.8809625 124.6523618 206.8793881  90.3264737 123.6352644
 204.6582357  91.8196140 125.5454736 203.3233203  91.2366983 124.5492458
 204.5890002  91.9247926 122.5044638 206.0027742  92.3335952 123.4819588
 204.6589731  94.0505757 124.7041851 203.2585120  93.6612478 123.7006421
 204.5679548  94.2927877 121.6552164 205.9585354  94.6847619 122.6695471
 204.6160479  96.4341915 123.8395017 203.2137292  96.0407877 122.8502742
 204.5225892  96.6188654 120.7893420 205.9150986  97.0302493 121.7923350
 204.5727766  98.8197647 122.9237785 203.1770217  98.4043078 121.9243739
 205.8779208  99.4014951 120.8703196 204.3820697 100.3468999 120.9783585
 204.4818333  98.9738719 119.8623785 204.9500542  88.2829619 126.0311353
 203.4076585  89.1635741 125.8407896 204.3606181  91.0840562 127.1381875
 205.8958946  90.2227973 127.2902741 204.6577371  88.4300534 128.5820741
 203.1774861  89.3880040 128.4215076 204.3375385  91.3413520 129.4994737
 205.7965863  90.3674758 129.6791921 204.5456746  88.7708178 131.1498960
 203.0909449  89.7631222 130.9738867 204.3171845  91.7322743 131.9286315
 205.7674190  90.7448191 132.1041142 204.5367463  89.2091405 133.6521609
 203.0850939  90.1983802 133.4786289 205.7653060  91.1736533 134.6051465
 204.3169238  90.7802630 135.5492081 204.3007895  92.1624462 134.4385654
 204.8770187  89.4842503 122.5203470 203.3789227  89.2052412 123.4199758
 205.8557693  87.4209571 123.0242213 204.3300396  87.2149919 122.4118611
 204.9890450  86.8257473 125.3898266 204.7267210  85.6101249 124.2064306
 202.5415027  87.6714618 124.8749114 202.6848803  86.1026479 125.6514419
 202.5713367  84.9531193 123.4837990 202.5609557  86.4767440 122.6117341
 200.4082828  87.1190481 123.5503643 200.3294417  85.5899961 124.4427257
 200.6241578  84.3416438 122.2593392 200.6697045  85.8741868 121.3937974
 198.3108941  84.8721213 123.0555216 198.4301443  84.8380585 121.2835859
 198.3631053  86.3943538 122.1363582 212.8950000  82.6040000 116.9240000
 202.4800000  94.5680000 126.2210000 208.7478435  97.0712258 127.1598018
 207.2186208  97.0803423 127.1598476 206.6539748  95.6583454 127.1589514
 205.1257844  95.6649019 127.1583803 204.5542430  94.2650000 127.1580000
 203.2000000  94.2650000 127.1580000 205.2044269  93.2327992 127.1574242
 202.2930000  95.1690000 124.3630000 201.9219627  95.1686082 125.4964083
 201.9189482  94.5526945 127.1604991 209.1170424  96.5368952 128.0432020
 209.1177372  96.5359623 126.2782715 206.8552267  97.6199011 126.2774328
 206.8541634  97.6199044 128.0423625 207.0201151  95.1144740 128.0379224
 207.0200361  95.1159952 126.2777225 204.7585586  96.1833983 126.2661832
 204.7587875  96.1828719 128.0516810 202.8077631  95.1583881 127.1580000
 211.4260000  85.4030000 140.4650000 212.8757774  92.5042005 141.8911438
 211.3666515  92.4187848 141.8042115 210.8069757  91.5156163 142.8952000
 209.3082477  91.4600210 142.7283451 208.6891405  90.5932373 143.8013042
 207.1828159  90.7251808 143.7267451 206.5650844  89.9240000 142.5780000
 205.0190000  89.9240000 142.5780000 204.4116962  91.3507263 142.5780000
 204.9095752  92.2772788 141.4654628 204.3548467  93.6907891 141.6880727
 204.8623630  94.6542987 140.6200697 204.3104345  96.0654171 140.8408251
 204.8189850  97.0056350 139.7456482 204.2722930  98.4207717 139.9227523
 204.7848685  99.3381607 138.8248112 204.4955855  89.2741111 143.9250708
 204.8144433  90.0920878 145.1694143 204.2723105  89.4524234 146.4438002
 204.7003195  90.3163543 147.6239314 204.1840424  89.7950436 148.9585243
 204.6719724  90.7088103 150.0822741 204.1825094  90.2300682 151.4394483
 204.6703657  91.1410515 152.5533876 204.4641881  89.0533906 141.4116574
 204.8177005  87.5675280 141.3014780 204.4239989  86.6328091 142.4499994
 202.9159551  86.6481187 142.7049279 202.2414240  85.9982166 141.5144070
 200.7330011  86.0689084 141.5230254 200.2528935  85.3733068 140.2515470
 198.7448128  85.3700083 140.1594067 210.9640000  85.6710000 139.5100000
 210.8870455  85.3003397 139.5176543 210.8045611  84.9684972 141.2575043
 213.1709754  92.9056320 142.8668291 213.3111727  91.5022427 141.8014485
 211.0639720  92.0316836 140.8240912 210.9248237  93.4184455 141.9038742
 211.0702239  91.9088512 143.8822884 211.2354698  90.5067144 142.8159043
 209.0513187  91.0747845 141.7415598 208.8948951  92.4780287 142.7993450
 209.0232658  90.9312563 144.7875970 209.0033866  89.5477500 143.6975358
 206.8937068  91.7809578 143.6815596 206.8706052  90.3833389 144.6938530
 206.8853425  88.8809625 142.6273618 206.8793881  90.3264737 141.6102644
 204.6582357  91.8196140 143.5204736 203.3233203  91.2366983 142.5242458
 204.5890002  91.9247926 140.4794638 206.0027742  92.3335952 141.4569588
 204.6589731  94.0505757 142.6791851 203.2585120  93.6612478 141.6756421
 204.5679548  94.2927877 139.6302164 205.9585354  94.6847619 140.6445471
 204.6160479  96.4341915 141.8145017 203.2137292  96.0407877 140.8252742
 204.5225892  96.6188654 138.7643420 205.9150986  97.0302493 139.7673350
 204.5727766  98.8197647 140.8987785 203.1770217  98.4043078 139.8993739
 205.8779208  99.4014951 138.8453196 204.3820697 100.3468999 138.9533585
 204.4818333  98.9738719 137.8373785 204.9500542  88.2829619 144.0061353
 203.4076585  89.1635741 143.8157896 204.3606181  91.0840562 145.1131875
 205.8958946  90.2227973 145.2652741 204.6577371  88.4300534 146.5570741
 203.1774861  89.3880040 146.3965076 204.3375385  91.3413520 147.4744737
 205.7965863  90.3674758 147.6541921 204.5456746  88.7708178 149.1248960
 203.0909449  89.7631222 148.9488867 204.3171845  91.7322743 149.9036315
 205.7674190  90.7448191 150.0791142 204.5367463  89.2091405 151.6271609
 203.0850939  90.1983802 151.4536289 205.7653060  91.1736533 152.5801465
 204.3169238  90.7802630 153.5242081 204.3007895  92.1624462 152.4135654
 204.8770187  89.4842503 140.4953470 203.3789227  89.2052412 141.3949758
 205.8557693  87.4209571 140.9992213 204.3300396  87.2149919 140.3868611
 204.9890450  86.8257473 143.3648266 204.7267210  85.6101249 142.1814306
 202.5415027  87.6714618 142.8499114 202.6848803  86.1026479 143.6264419
 202.5713367  84.9531193 141.4587990 202.5609557  86.4767440 140.5867341
 200.4082828  87.1190481 141.5253643 200.3294417  85.5899961 142.4177257
 200.6241578  84.3416438 140.2343392 200.6697045  85.8741868 139.3687974
 198.3108941  84.8721213 141.0305216 198.4301443  84.8380585 139.2585859
 198.3631053  86.3943538 140.1113582 212.8950000  82.6040000 134.8990000
 202.4800000  94.5680000 144.1960000 208.7478435  97.0712258 145.1348018
 207.2186208  97.0803423 145.1348476 206.6539748  95.6583454 145.1339514
 205.1257844  95.6649019 145.1333803 204.5542430  94.2650000 145.1330000
 203.2000000  94.2650000 145.1330000 205.2044269  93.2327992 145.1324242
 202.2930000  95.1690000 142.3380000 201.9219627  95.1686082 143.4714083
 201.9189482  94.5526945 145.1354991 209.1170424  96.5368952 146.0182020
 209.1177372  96.5359623 144.2532715 206.8552267  97.6199011 144.2524328
 206.8541634  97.6199044 146.0173625 207.0201151  95.1144740 146.0129224
 207.0200361  95.1159952 144.2527225 204.7585586  96.1833983 144.2411832
 204.7587875  96.1828719 146.0266810 202.8077631  95.1583881 145.1330000
 211.4260000  85.4030000 158.4400000 212.8757774  92.5042005 159.8661438
 211.3666515  92.4187848 159.7792115 210.8069757  91.5156163 160.8702000
 209.3082477  91.4600210 160.7033451 208.6891405  90.5932373 161.7763042
 207.1828159  90.7251808 161.7017451 206.5650844  89.9240000 160.5530000
 205.0190000  89.9240000 160.5530000 204.4116962  91.3507263 160.5530000
 204.9095752  92.2772788 159.4404628 204.3548467  93.6907891 159.6630727
 204.8623630  94.6542987 158.5950697 204.3104345  96.0654171 158.8158251
 204.8189850  97.0056350 157.7206482 204.2722930  98.4207717 157.8977523
 204.7848685  99.3381607 156.7998112 204.4955855  89.2741111 161.9000708
 204.8144433  90.0920878 163.1444143 204.2723105  89.4524234 164.4188002
 204.7003195  90.3163543 165.5989314 204.1840424  89.7950436 166.9335243
 204.6719724  90.7088103 168.0572741 204.1825094  90.2300682 169.4144483
 204.6703657  91.1410515 170.5283876 204.4641881  89.0533906 159.3866574
 204.8177005  87.5675280 159.2764780 204.4239989  86.6328091 160.4249994
 202.9159551  86.6481187 160.6799279 202.2414240  85.9982166 159.4894070
 200.7330011  86.0689084 159.4980254 200.2528935  85.3733068 158.2265470
 198.7448128  85.3700083 158.1344067 210.9640000  85.6710000 157.4850000
 210.8870455  85.3003397 157.4926543 210.8045611  84.9684972 159.2325043
 213.1709754  92.9056320 160.8418291 213.3111727  91.5022427 159.7764485
 211.0639720  92.0316836 158.7990912 210.9248237  93.4184455 159.8788742
 211.0702239  91.9088512 161.8572884 211.2354698  90.5067144 160.7909043
 209.0513187  91.0747845 159.7165598 208.8948951  92.4780287 160.7743450
 209.0232658  90.9312563 162.7625970 209.0033866  89.5477500 161.6725358
 206.8937068  91.7809578 161.6565596 206.8706052  90.3833389 162.6688530
 206.8853425  88.8809625 160.6023618 206.8793881  90.3264737 159.5852644
 204.6582357  91.8196140 161.4954736 203.3233203  91.2366983 160.4992458
 204.5890002  91.9247926 158.4544638 206.0027742  92.3335952 159.4319588
 204.6589731  94.0505757 160.6541851 203.2585120  93.6612478 159.6506421
 204.5679548  94.2927877 157.6052164 205.9585354  94.6847619 158.6195471
 204.6160479  96.4341915 159.7895017 203.2137292  96.0407877 158.8002742
 204.5225892  96.6188654 156.7393420 205.9150986  97.0302493 157.7423350
 204.5727766  98.8197647 158.8737785 203.1770217  98.4043078 157.8743739
 205.8779208  99.4014951 156.8203196 204.3820697 100.3468999 156.9283585
 204.4818333  98.9738719 155.8123785 204.9500542  88.2829619 161.9811353
 203.4076585  89.1635741 161.7907896 204.3606181  91.0840562 163.0881875
 205.8958946  90.2227973 163.2402741 204.6577371  88.4300534 164.5320741
 203.1774861  89.3880040 164.3715076 204.3375385  91.3413520 165.4494737
 205.7965863  90.3674758 165.6291921 204.5456746  88.7708178 167.0998960
 203.0909449  89.7631222 166.9238867 204.3171845  91.7322743 167.8786315
 205.7674190  90.7448191 168.0541142 204.5367463  89.2091405 169.6021609
 203.0850939  90.1983802 169.4286289 205.7653060  91.1736533 170.5551465
 204.3169238  90.7802630 171.4992081 204.3007895  92.1624462 170.3885654
 204.8770187  89.4842503 158.4703470 203.3789227  89.2052412 159.3699758
 205.8557693  87.4209571 158.9742213 204.3300396  87.2149919 158.3618611
 204.9890450  86.8257473 161.3398266 204.7267210  85.6101249 160.1564306
 202.5415027  87.6714618 160.8249114 202.6848803  86.1026479 161.6014419
 202.5713367  84.9531193 159.4337990 202.5609557  86.4767440 158.5617341
 200.4082828  87.1190481 159.5003643 200.3294417  85.5899961 160.3927257
 200.6241578  84.3416438 158.2093392 200.6697045  85.8741868 157.3437974
 198.3108941  84.8721213 159.0055216 198.4301443  84.8380585 157.2335859
 198.3631053  86.3943538 158.0863582 212.8950000  82.6040000 152.8740000
 202.4800000  94.5680000 162.1710000 208.7478435  97.0712258 163.1098018
 207.2186208  97.0803423 163.1098476 206.6539748  95.6583454 163.1089514
 205.1257844  95.6649019 163.1083803 204.5542430  94.2650000 163.1080000
 203.2000000  94.2650000 163.1080000 205.2044269  93.2327992 163.1074242
 202.2930000  95.1690000 160.3130000 201.9219627  95.1686082 161.4464083
 201.9189482  94.5526945 163.1104991 209.1170424  96.5368952 163.9932020
 209.1177372  96.5359623 162.2282715 206.8552267  97.6199011 162.2274328
 206.8541634  97.6199044 163.9923625 207.0201151  95.1144740 163.9879224
 207.0200361  95.1159952 162.2277225 204.7585586  96.1833983 162.2161832
 204.7587875  96.1828719 164.0016810 202.8077631  95.1583881 163.1080000
 211.4260000  85.4030000 176.4150000 212.8757774  92.5042005 177.8411438
 211.3666515  92.4187848 177.7542115 210.8069757  91.5156163 178.8452000
 209.3082477  91.4600210 178.6783451 208.6891405  90.5932373 179.7513042
 207.1828159  90.7251808 179.6767451 206.5650844  89.9240000 178.5280000
 205.0190000  89.9240000 178.5280000 204.4116962  91.3507263 178.5280000
 204.9095752  92.2772788 177.4154628 204.3548467  93.6907891 177.6380727
 204.8623630  94.6542987 176.5700697 204.3104345  96.0654171 176.7908251
 204.8189850  97.0056350 175.6956482 204.2722930  98.4207717 175.8727523
 204.7848685  99.3381607 174.7748112 204.4955855  89.2741111 179.8750708
 204.8144433  90.0920878 181.1194143 204.2723105  89.4524234 182.3938002
 204.7003195  90.3163543 183.5739314 204.1840424  89.7950436 184.9085243
 204.6719724  90.7088103 186.0322741 204.1825094  90.2300682 187.3894483
 204.6703657  91.1410515 188.5033876 204.4641881  89.0533906 177.3616574
 204.8177005  87.5675280 177.2514780 204.4239989  86.6328091 178.3999994
 202.9159551  86.6481187 178.6549279 202.2414240  85.9982166 177.4644070
 200.7330011  86.0689084 177.4730254 200.2528935  85.3733068 176.2015470
 198.7448128  85.3700083 176.1094067 210.9640000  85.6710000 175.4600000
 210.8870455  85.3003397 175.4676543 210.8045611  84.9684972 177.2075043
 213.1709754  92.9056320 178.8168291 213.3111727  91.5022427 177.7514485
 211.0639720  92.0316836 176.7740912 210.9248237  93.4184455 177.8538742
 211.0702239  91.9088512 179.8322884 211.2354698  90.5067144 178.7659043
 209.0513187  91.0747845 177.6915598 208.8948951  92.4780287 178.7493450
 209.0232658  90.9312563 180.7375970 209.0033866  89.5477500 179.6475358
 206.8937068  91.7809578 179.6315596 206.8706052  90.3833389 180.6438530
 206.8853425  88.8809625 178.5773618 206.8793881  90.3264737 177.5602644
 204.6582357  91.8196140 179.4704736 203.3233203  91.2366983 178.4742458
 204.5890002  91.9247926 176.4294638 206.0027742  92.3335952 177.4069588
 204.6589731  94.0505757 178.6291851 203.2585120  93.6612478 177.6256421
 204.5679548  94.2927877 175.5802164 205.9585354  94.6847619 176.5945471
 204.6160479  96.4341915 177.7645017 203.2137292  96.0407877 176.7752742
 204.5225892  96.6188654 174.7143420 205.9150986  97.0302493 175.7173350
 204.5727766  98.8197647 176.8487785 203.1770217  98.4043078 175.8493739
 205.8779208  99.4014951 174.7953196 204.3820697 100.3468999 174.9033585
 204.4818333  98.9738719 173.7873785 204.9500542  88.2829619 179.9561353
 203.4076585  89.1635741 179.7657896 204.3606181  91.0840562 181.0631875
 205.8958946  90.2227973 181.2152741 204.6577371  88.4300534 182.5070741
 203.1774861  89.3880040 182.3465076 204.3375385  91.3413520 183.4244737
 205.7965863  90.3674758 183.6041921 204.5456746  88.7708178 185.0748960
 203.0909449  89.7631222 184.8988867 204.3171845  91.7322743 185.8536315
 205.7674190  90.7448191 186.0291142 204.5367463  89.2091405 187.5771609
 203.0850939  90.1983802 187.4036289 205.7653060  91.1736533 188.5301465
 204.3169238  90.7802630 189.4742081 204.3007895  92.1624462 188.3635654
 204.8770187  89.4842503 176.4453470 203.3789227  89.2052412 177.3449758
 205.8557693  87.4209571 176.9492213 204.3300396  87.2149919 176.3368611
 204.9890450  86.8257473 179.3148266 204.7267210  85.6101249 178.1314306
 202.5415027  87.6714618 178.7999114 202.6848803  86.1026479 179.5764419
 202.5713367  84.9531193 177.4087990 202.5609557  86.4767440 176.5367341
 200.4082828  87.1190481 177.4753643 200.3294417  85.5899961 178.3677257
 200.6241578  84.3416438 176.1843392 200.6697045  85.8741868 175.3187974
 198.3108941  84.8721213 176.9805216 198.4301443  84.8380585 175.2085859
 198.3631053  86.3943538 176.0613582 212.8950000  82.6040000 170.8490000
 202.4800000  94.5680000 180.1460000 208.7478435  97.0712258 181.0848018
 207.2186208  97.0803423 181.0848476 206.6539748  95.6583454 181.0839514
 205.1257844  95.6649019 181.0833803 204.5542430  94.2650000 181.0830000
 203.2000000  94.2650000 181.0830000 205.2044269  93.2327992 181.0824242
 202.2930000  95.1690000 178.2880000 201.9219627  95.1686082 179.4214083
 201.9189482  94.5526945 181.0854991 209.1170424  96.5368952 181.9682020
 209.1177372  96.5359623 180.2032715 206.8552267  97.6199011 180.2024328
 206.8541634  97.6199044 181.9673625 207.0201151  95.1144740 181.9629224
 207.0200361  95.1159952 180.2027225 204.7585586  96.1833983 180.1911832
 204.7587875  96.1828719 181.9766810 202.8077631  95.1583881 181.0830000
 211.4260000 104.0060000  68.5660000 212.8757774 111.1072005  69.9921438
 211.3666515 111.0217848  69.9052115 210.8069757 110.1186163  70.9962000
 209.3082477 110.0630210  70.8293451 208.6891405 109.1962373  71.9023042
 207.1828159 109.3281808  71.8277451 206.5650844 108.5270000  70.6790000
 205.0190000 108.5270000  70.6790000 204.4116962 109.9537263  70.6790000
 204.9095752 110.8802788  69.5664628 204.3548467 112.2937891  69.7890727
 204.8623630 113.2572987  68.7210697 204.3104345 114.6684171  68.9418251
 204.8189850 115.6086350  67.8466482 204.2722930 117.0237717  68.0237523
 204.7848685 117.9411607  66.9258112 204.4955855 107.8771111  72.0260708
 204.8144433 108.6950878  73.2704143 204.2723105 108.0554234  74.5448002
 204.7003195 108.9193543  75.7249314 204.1840424 108.3980436  77.0595243
 204.6719724 109.3118103  78.1832741 204.1825094 108.8330682  79.5404483
 204.6703657 109.7440515  80.6543876 204.4641881 107.6563906  69.5126574
 204.8177005 106.1705280  69.4024780 204.4239989 105.2358091  70.5509994
 202.9159551 105.2511187  70.8059279 202.2414240 104.6012166  69.6154070
 200.7330011 104.6719084  69.6240254 200.2528935 103.9763068  68.3525470
 198.7448128 103.9730083  68.2604067 210.9640000 104.2740000  67.6110000
 210.8870455 103.9033397  67.6186543 210.8045611 103.5714972  69.3585043
 213.1709754 111.5086320  70.9678291 213.3111727 110.1052427  69.9024485
 211.0639720 110.6346836  68.9250912 210.9248237 112.0214455  70.0048742
 211.0702239 110.5118512  71.9832884 211.2354698 109.1097144  70.9169043
 209.0513187 109.6777845  69.8425598 208.8948951 111.0810287  70.9003450
 209.0232658 109.5342563  72.8885970 209.0033866 108.1507500  71.7985358
 206.8937068 110.3839578  71.7825596 206.8706052 108.9863389  72.7948530
 206.8853425 107.4839625  70.7283618 206.8793881 108.9294737  69.7112644
 204.6582357 110.4226140  71.6214736 203.3233203 109.8396983  70.6252458
 204.5890002 110.5277926  68.5804638 206.0027742 110.9365952  69.5579588
 204.6589731 112.6535757  70.7801851 203.2585120 112.2642478  69.7766421
 204.5679548 112.8957877  67.7312164 205.9585354 113.2877619  68.7455471
 204.6160479 115.0371915  69.9155017 203.2137292 114.6437877  68.9262742
 204.5225892 115.2218654  66.8653420 205.9150986 115.6332493  67.8683350
 204.5727766 117.4227647  68.9997785 203.1770217 117.0073078  68.0003739
 205.8779208 118.0044951  66.9463196 204.3820697 118.9498999  67.0543585
 204.4818333 117.5768719  65.9383785 204.9500542 106.8859619  72.1071353
 203.4076585 107.7665741  71.9167896 204.3606181 109.6870562  73.2141875
 205.8958946 108.8257973  73.3662741 204.6577371 107.0330534  74.6580741
 203.1774861 107.9910040  74.4975076 204.3375385 109.9443520  75.5754737
 205.7965863 108.9704758  75.7551921 204.5456746 107.3738178  77.2258960
 203.0909449 108.3661222  77.0498867 204.3171845 110.3352743  78.0046315
 205.7674190 109.3478191  78.1801142 204.5367463 107.8121405  79.7281609
 203.0850939 108.8013802  79.5546289 205.7653060 109.7766533  80.6811465
 204.3169238 109.3832630  81.6252081 204.3007895 110.7654462  80.5145654
 204.8770187 108.0872503  68.5963470 203.3789227 107.8082412  69.4959758
 205.8557693 106.0239571  69.1002213 204.3300396 105.8179919  68.4878611
 204.9890450 105.4287473  71.4658266 204.7267210 104.2131249  70.2824306
 202.5415027 106.2744618  70.9509114 202.6848803 104.7056479  71.7274419
 202.5713367 103.5561193  69.5597990 202.5609557 105.0797440  68.6877341
 200.4082828 105.7220481  69.6263643 200.3294417 104.1929961  70.5187257
 200.6241578 102.9446438  68.3353392 200.6697045 104.4771868  67.4697974
 198.3108941 103.4751213  69.1315216 198.4301443 103.4410585  67.3595859
 198.3631053 104.9973538  68.2123582 212.8950000 101.2070000  63.0000000
 202.4800000 113.1710000  72.2970000 208.7478435 115.6742258  73.2358018
 207.2186208 115.6833423  73.2358476 206.6539748 114.2613454  73.2349514
 205.1257844 114.2679019  73.2343803 204.5542430 112.8680000  73.2340000
 203.2000000 112.8680000  73.2340000 205.2044269 111.8357992  73.2334242
 202.2930000 113.7720000  70.4390000 201.9219627 113.7716082  71.5724083
 201.9189482 113.1556945  73.2364991 209.1170424 115.1398952  74.1192020
 209.1177372 115.1389623  72.3542715 206.8552267 116.2229011  72.3534328
 206.8541634 116.2229044  74.1183625 207.0201151 113.7174740  74.1139224
 207.0200361 113.7189952  72.3537225 204.7585586 114.7863983  72.3421832
 204.7587875 114.7858719  74.1276810 202.8077631 113.7613881  73.2340000
 211.4260000 104.0060000  86.5410000 212.8757774 111.1072005  87.9671438
 211.3666515 111.0217848  87.8802115 210.8069757 110.1186163  88.9712000
 209.3082477 110.0630210  88.8043451 208.6891405 109.1962373  89.8773042
 207.1828159 109.3281808  89.8027451 206.5650844 108.5270000  88.6540000
 205.0190000 108.5270000  88.6540000 204.4116962 109.9537263  88.6540000
 204.9095752 110.8802788  87.5414628 204.3548467 112.2937891  87.7640727
 204.8623630 113.2572987  86.6960697 204.3104345 114.6684171  86.9168251
 204.8189850 115.6086350  85.8216482 204.2722930 117.0237717  85.9987523
 204.7848685 117.9411607  84.9008112 204.4955855 107.8771111  90.0010708
 204.8144433 108.6950878  91.2454143 204.2723105 108.0554234  92.5198002
 204.7003195 108.9193543  93.6999314 204.1840424 108.3980436  95.0345243
 204.6719724 109.3118103  96.1582741 204.1825094 108.8330682  97.5154483
 204.6703657 109.7440515  98.6293876 204.4641881 107.6563906  87.4876574
 204.8177005 106.1705280  87.3774780 204.4239989 105.2358091  88.5259994
 202.9159551 105.2511187  88.7809279 202.2414240 104.6012166  87.5904070
 200.7330011 104.6719084  87.5990254 200.2528935 103.9763068  86.3275470
 198.7448128 103.9730083  86.2354067 210.9640000 104.2740000  85.5860000
 210.8870455 103.9033397  85.5936543 210.8045611 103.5714972  87.3335043
 213.1709754 111.5086320  88.9428291 213.3111727 110.1052427  87.8774485
 211.0639720 110.6346836  86.9000912 210.9248237 112.0214455  87.9798742
 211.0702239 110.5118512  89.9582884 211.2354698 109.1097144  88.8919043
 209.0513187 109.6777845  87.8175598 208.8948951 111.0810287  88.8753450
 209.0232658 109.5342563  90.8635970 209.0033866 108.1507500  89.7735358
 206.8937068 110.3839578  89.7575596 206.8706052 108.9863389  90.7698530
 206.8853425 107.4839625  88.7033618 206.8793881 108.9294737  87.6862644
 204.6582357 110.4226140  89.5964736 203.3233203 109.8396983  88.6002458
 204.5890002 110.5277926  86.5554638 206.0027742 110.9365952  87.5329588
 204.6589731 112.6535757  88.7551851 203.2585120 112.2642478  87.7516421
 204.5679548 112.8957877  85.7062164 205.9585354 113.2877619  86.7205471
 204.6160479 115.0371915  87.8905017 203.2137292 114.6437877  86.9012742
 204.5225892 115.2218654  84.8403420 205.9150986 115.6332493  85.8433350
 204.5727766 117.4227647  86.9747785 203.1770217 117.0073078  85.9753739
 205.8779208 118.0044951  84.9213196 204.3820697 118.9498999  85.0293585
 204.4818333 117.5768719  83.9133785 204.9500542 106.8859619  90.0821353
 203.4076585 107.7665741  89.8917896 204.3606181 109.6870562  91.1891875
 205.8958946 108.8257973  91.3412741 204.6577371 107.0330534  92.6330741
 203.1774861 107.9910040  92.4725076 204.3375385 109.9443520  93.5504737
 205.7965863 108.9704758  93.7301921 204.5456746 107.3738178  95.2008960
 203.0909449 108.3661222  95.0248867 204.3171845 110.3352743  95.9796315
 205.7674190 109.3478191  96.1551142 204.5367463 107.8121405  97.7031609
 203.0850939 108.8013802  97.5296289 205.7653060 109.7766533  98.6561465
 204.3169238 109.3832630  99.6002081 204.3007895 110.7654462  98.4895654
 204.8770187 108.0872503  86.5713470 203.3789227 107.8082412  87.4709758
 205.8557693 106.0239571  87.0752213 204.3300396 105.8179919  86.4628611
 204.9890450 105.4287473  89.4408266 204.7267210 104.2131249  88.2574306
 202.5415027 106.2744618  88.9259114 202.6848803 104.7056479  89.7024419
 202.5713367 103.5561193  87.5347990 202.5609557 105.0797440  86.6627341
 200.4082828 105.7220481  87.6013643 200.3294417 104.1929961  88.4937257
 200.6241578 102.9446438  86.3103392 200.6697045 104.4771868  85.4447974
 198.3108941 103.4751213  87.1065216 198.4301443 103.4410585  85.3345859
 198.3631053 104.9973538  86.1873582 212.8950000 101.2070000  80.9750000
 202.4800000 113.1710000  90.2720000 208.7478435 115.6742258  91.2108018
 207.2186208 115.6833423  91.2108476 206.6539748 114.2613454  91.2099514
 205.1257844 114.2679019  91.2093803 204.5542430 112.8680000  91.2090000
 203.2000000 112.8680000  91.2090000 205.2044269 111.8357992  91.2084242
 202.2930000 113.7720000  88.4140000 201.9219627 113.7716082  89.5474083
 201.9189482 113.1556945  91.2114991 209.1170424 115.1398952  92.0942020
 209.1177372 115.1389623  90.3292715 206.8552267 116.2229011  90.3284328
 206.8541634 116.2229044  92.0933625 207.0201151 113.7174740  92.0889224
 207.0200361 113.7189952  90.3287225 204.7585586 114.7863983  90.3171832
 204.7587875 114.7858719  92.1026810 202.8077631 113.7613881  91.2090000
 211.4260000 104.0060000 104.5160000 212.8757774 111.1072005 105.9421438
 211.3666515 111.0217848 105.8552115 210.8069757 110.1186163 106.9462000
 209.3082477 110.0630210 106.7793451 208.6891405 109.1962373 107.8523042
 207.1828159 109.3281808 107.7777451 206.5650844 108.5270000 106.6290000
 205.0190000 108.5270000 106.6290000 204.4116962 109.9537263 106.6290000
 204.9095752 110.8802788 105.5164628 204.3548467 112.2937891 105.7390727
 204.8623630 113.2572987 104.6710697 204.3104345 114.6684171 104.8918251
 204.8189850 115.6086350 103.7966482 204.2722930 117.0237717 103.9737523
 204.7848685 117.9411607 102.8758112 204.4955855 107.8771111 107.9760708
 204.8144433 108.6950878 109.2204143 204.2723105 108.0554234 110.4948002
 204.7003195 108.9193543 111.6749314 204.1840424 108.3980436 113.0095243
 204.6719724 109.3118103 114.1332741 204.1825094 108.8330682 115.4904483
 204.6703657 109.7440515 116.6043876 204.4641881 107.6563906 105.4626574
 204.8177005 106.1705280 105.3524780 204.4239989 105.2358091 106.5009994
 202.9159551 105.2511187 106.7559279 202.2414240 104.6012166 105.5654070
 200.7330011 104.6719084 105.5740254 200.2528935 103.9763068 104.3025470
 198.7448128 103.9730083 104.2104067 210.9640000 104.2740000 103.5610000
 210.8870455 103.9033397 103.5686543 210.8045611 103.5714972 105.3085043
 213.1709754 111.5086320 106.9178291 213.3111727 110.1052427 105.8524485
 211.0639720 110.6346836 104.8750912 210.9248237 112.0214455 105.9548742
 211.0702239 110.5118512 107.9332884 211.2354698 109.1097144 106.8669043
 209.0513187 109.6777845 105.7925598 208.8948951 111.0810287 106.8503450
 209.0232658 109.5342563 108.8385970 209.0033866 108.1507500 107.7485358
 206.8937068 110.3839578 107.7325596 206.8706052 108.9863389 108.7448530
 206.8853425 107.4839625 106.6783618 206.8793881 108.9294737 105.6612644
 204.6582357 110.4226140 107.5714736 203.3233203 109.8396983 106.5752458
 204.5890002 110.5277926 104.5304638 206.0027742 110.9365952 105.5079588
 204.6589731 112.6535757 106.7301851 203.2585120 112.2642478 105.7266421
 204.5679548 112.8957877 103.6812164 205.9585354 113.2877619 104.6955471
 204.6160479 115.0371915 105.8655017 203.2137292 114.6437877 104.8762742
 204.5225892 115.2218654 102.8153420 205.9150986 115.6332493 103.8183350
 204.5727766 117.4227647 104.9497785 203.1770217 117.0073078 103.9503739
 205.8779208 118.0044951 102.8963196 204.3820697 118.9498999 103.0043585
 204.4818333 117.5768719 101.8883785 204.9500542 106.8859619 108.0571353
 203.4076585 107.7665741 107.8667896 204.3606181 109.6870562 109.1641875
 205.8958946 108.8257973 109.3162741 204.6577371 107.0330534 110.6080741
 203.1774861 107.9910040 110.4475076 204.3375385 109.9443520 111.5254737
 205.7965863 108.9704758 111.7051921 204.5456746 107.3738178 113.1758960
 203.0909449 108.3661222 112.9998867 204.3171845 110.3352743 113.9546315
 205.7674190 109.3478191 114.1301142 204.5367463 107.8121405 115.6781609
 203.0850939 108.8013802 115.5046289 205.7653060 109.7766533 116.6311465
 204.3169238 109.3832630 117.5752081 204.3007895 110.7654462 116.4645654
 204.8770187 108.0872503 104.5463470 203.3789227 107.8082412 105.4459758
 205.8557693 106.0239571 105.0502213 204.3300396 105.8179919 104.4378611
 204.9890450 105.4287473 107.4158266 204.7267210 104.2131249 106.2324306
 202.5415027 106.2744618 106.9009114 202.6848803 104.7056479 107.6774419
 202.5713367 103.5561193 105.5097990 202.5609557 105.0797440 104.6377341
 200.4082828 105.7220481 105.5763643 200.3294417 104.1929961 106.4687257
 200.6241578 102.9446438 104.2853392 200.6697045 104.4771868 103.4197974
 198.3108941 103.4751213 105.0815216 198.4301443 103.4410585 103.3095859
 198.3631053 104.9973538 104.1623582 212.8950000 101.2070000  98.9500000
 202.4800000 113.1710000 108.2470000 208.7478435 115.6742258 109.1858018
 207.2186208 115.6833423 109.1858476 206.6539748 114.2613454 109.1849514
 205.1257844 114.2679019 109.1843803 204.5542430 112.8680000 109.1840000
 203.2000000 112.8680000 109.1840000 205.2044269 111.8357992 109.1834242
 202.2930000 113.7720000 106.3890000 201.9219627 113.7716082 107.5224083
 201.9189482 113.1556945 109.1864991 209.1170424 115.1398952 110.0692020
 209.1177372 115.1389623 108.3042715 206.8552267 116.2229011 108.3034328
 206.8541634 116.2229044 110.0683625 207.0201151 113.7174740 110.0639224
 207.0200361 113.7189952 108.3037225 204.7585586 114.7863983 108.2921832
 204.7587875 114.7858719 110.0776810 202.8077631 113.7613881 109.1840000
 211.4260000 104.0060000 122.4900000 212.8757774 111.1072005 123.9161438
 211.3666515 111.0217848 123.8292115 210.8069757 110.1186163 124.9202000
 209.3082477 110.0630210 124.7533451 208.6891405 109.1962373 125.8263042
 207.1828159 109.3281808 125.7517451 206.5650844 108.5270000 124.6030000
 205.0190000 108.5270000 124.6030000 204.4116962 109.9537263 124.6030000
 204.9095752 110.8802788 123.4904628 204.3548467 112.2937891 123.7130727
 204.8623630 113.2572987 122.6450697 204.3104345 114.6684171 122.8658251
 204.8189850 115.6086350 121.7706482 204.2722930 117.0237717 121.9477523
 204.7848685 117.9411607 120.8498112 204.4955855 107.8771111 125.9500708
 204.8144433 108.6950878 127.1944143 204.2723105 108.0554234 128.4688002
 204.7003195 108.9193543 129.6489314 204.1840424 108.3980436 130.9835243
 204.6719724 109.3118103 132.1072741 204.1825094 108.8330682 133.4644483
 204.6703657 109.7440515 134.5783876 204.4641881 107.6563906 123.4366574
 204.8177005 106.1705280 123.3264780 204.4239989 105.2358091 124.4749994
 202.9159551 105.2511187 124.7299279 202.2414240 104.6012166 123.5394070
 200.7330011 104.6719084 123.5480254 200.2528935 103.9763068 122.2765470
 198.7448128 103.9730083 122.1844067 210.9640000 104.2740000 121.5350000
 210.8870455 103.9033397 121.5426543 210.8045611 103.5714972 123.2825043
 213.1709754 111.5086320 124.8918291 213.3111727 110.1052427 123.8264485
 211.0639720 110.6346836 122.8490912 210.9248237 112.0214455 123.9288742
 211.0702239 110.5118512 125.9072884 211.2354698 109.1097144 124.8409043
 209.0513187 109.6777845 123.7665598 208.8948951 111.0810287 124.8243450
 209.0232658 109.5342563 126.8125970 209.0033866 108.1507500 125.7225358
 206.8937068 110.3839578 125.7065596 206.8706052 108.9863389 126.7188530
 206.8853425 107.4839625 124.6523618 206.8793881 108.9294737 123.6352644
 204.6582357 110.4226140 125.5454736 203.3233203 109.8396983 124.5492458
 204.5890002 110.5277926 122.5044638 206.0027742 110.9365952 123.4819588
 204.6589731 112.6535757 124.7041851 203.2585120 112.2642478 123.7006421
 204.5679548 112.8957877 121.6552164 205.9585354 113.2877619 122.6695471
 204.6160479 115.0371915 123.8395017 203.2137292 114.6437877 122.8502742
 204.5225892 115.2218654 120.7893420 205.9150986 115.6332493 121.7923350
 204.5727766 117.4227647 122.9237785 203.1770217 117.0073078 121.9243739
 205.8779208 118.0044951 120.8703196 204.3820697 118.9498999 120.9783585
 204.4818333 117.5768719 119.8623785 204.9500542 106.8859619 126.0311353
 203.4076585 107.7665741 125.8407896 204.3606181 109.6870562 127.1381875
 205.8958946 108.8257973 127.2902741 204.6577371 107.0330534 128.5820741
 203.1774861 107.9910040 128.4215076 204.3375385 109.9443520 129.4994737
 205.7965863 108.9704758 129.6791921 204.5456746 107.3738178 131.1498960
 203.0909449 108.3661222 130.9738867 204.3171845 110.3352743 131.9286315
 205.7674190 109.3478191 132.1041142 204.5367463 107.8121405 133.6521609
 203.0850939 108.8013802 133.4786289 205.7653060 109.7766533 134.6051465
 204.3169238 109.3832630 135.5492081 204.3007895 110.7654462 134.4385654
 204.8770187 108.0872503 122.5203470 203.3789227 107.8082412 123.4199758
 205.8557693 106.0239571 123.0242213 204.3300396 105.8179919 122.4118611
 204.9890450 105.4287473 125.3898266 204.7267210 104.2131249 124.2064306
 202.5415027 106.2744618 124.8749114 202.6848803 104.7056479 125.6514419
 202.5713367 103.5561193 123.4837990 202.5609557 105.0797440 122.6117341
 200.4082828 105.7220481 123.5503643 200.3294417 104.1929961 124.4427257
 200.6241578 102.9446438 122.2593392 200.6697045 104.4771868 121.3937974
 198.3108941 103.4751213 123.0555216 198.4301443 103.4410585 121.2835859
 198.3631053 104.9973538 122.1363582 212.8950000 101.2070000 116.9240000
 202.4800000 113.1710000 126.2210000 208.7478435 115.6742258 127.1598018
 207.2186208 115.6833423 127.1598476 206.6539748 114.2613454 127.1589514
 205.1257844 114.2679019 127.1583803 204.5542430 112.8680000 127.1580000
 203.2000000 112.8680000 127.1580000 205.2044269 111.8357992 127.1574242
 202.2930000 113.7720000 124.3630000 201.9219627 113.7716082 125.4964083
 201.9189482 113.1556945 127.1604991 209.1170424 115.1398952 128.0432020
 209.1177372 115.1389623 126.2782715 206.8552267 116.2229011 126.2774328
 206.8541634 116.2229044 128.0423625 207.0201151 113.7174740 128.0379224
 207.0200361 113.7189952 126.2777225 204.7585586 114.7863983 126.2661832
 204.7587875 114.7858719 128.0516810 202.8077631 113.7613881 127.1580000
 211.4260000 104.0060000 140.4650000 212.8757774 111.1072005 141.8911438
 211.3666515 111.0217848 141.8042115 210.8069757 110.1186163 142.8952000
 209.3082477 110.0630210 142.7283451 208.6891405 109.1962373 143.8013042
 207.1828159 109.3281808 143.7267451 206.5650844 108.5270000 142.5780000
 205.0190000 108.5270000 142.5780000 204.4116962 109.9537263 142.5780000
 204.9095752 110.8802788 141.4654628 204.3548467 112.2937891 141.6880727
 204.8623630 113.2572987 140.6200697 204.3104345 114.6684171 140.8408251
 204.8189850 115.6086350 139.7456482 204.2722930 117.0237717 139.9227523
 204.7848685 117.9411607 138.8248112 204.4955855 107.8771111 143.9250708
 204.8144433 108.6950878 145.1694143 204.2723105 108.0554234 146.4438002
 204.7003195 108.9193543 147.6239314 204.1840424 108.3980436 148.9585243
 204.6719724 109.3118103 150.0822741 204.1825094 108.8330682 151.4394483
 204.6703657 109.7440515 152.5533876 204.4641881 107.6563906 141.4116574
 204.8177005 106.1705280 141.3014780 204.4239989 105.2358091 142.4499994
 202.9159551 105.2511187 142.7049279 202.2414240 104.6012166 141.5144070
 200.7330011 104.6719084 141.5230254 200.2528935 103.9763068 140.2515470
 198.7448128 103.9730083 140.1594067 210.9640000 104.2740000 139.5100000
 210.8870455 103.9033397 139.5176543 210.8045611 103.5714972 141.2575043
 213.1709754 111.5086320 142.8668291 213.3111727 110.1052427 141.8014485
 211.0639720 110.6346836 140.8240912 210.9248237 112.0214455 141.9038742
 211.0702239 110.5118512 143.8822884 211.2354698 109.1097144 142.8159043
 209.0513187 109.6777845 141.7415598 208.8948951 111.0810287 142.7993450
 209.0232658 109.5342563 144.7875970 209.0033866 108.1507500 143.6975358
 206.8937068 110.3839578 143.6815596 206.8706052 108.9863389 144.6938530
 206.8853425 107.4839625 142.6273618 206.8793881 108.9294737 141.6102644
 204.6582357 110.4226140 143.5204736 203.3233203 109.8396983 142.5242458
 204.5890002 110.5277926 140.4794638 206.0027742 110.9365952 141.4569588
 204.6589731 112.6535757 142.6791851 203.2585120 112.2642478 141.6756421
 204.5679548 112.8957877 139.6302164 205.9585354 113.2877619 140.6445471
 204.6160479 115.0371915 141.8145017 203.2137292 114.6437877 140.8252742
 204.5225892 115.2218654 138.7643420 205.9150986 115.6332493 139.7673350
 204.5727766 117.4227647 140.8987785 203.1770217 117.0073078 139.8993739
 205.8779208 118.0044951 138.8453196 204.3820697 118.9498999 138.9533585
 204.4818333 117.5768719 137.8373785 204.9500542 106.8859619 144.0061353
 203.4076585 107.7665741 143.8157896 204.3606181 109.6870562 145.1131875
 205.8958946 108.8257973 145.2652741 204.6577371 107.0330534 146.5570741
 203.1774861 107.9910040 146.3965076 204.3375385 109.9443520 147.4744737
 205.7965863 108.9704758 147.6541921 204.5456746 107.3738178 149.1248960
 203.0909449 108.3661222 148.9488867 204.3171845 110.3352743 149.9036315
 205.7674190 109.3478191 150.0791142 204.5367463 107.8121405 151.6271609
 203.0850939 108.8013802 151.4536289 205.7653060 109.7766533 152.5801465
 204.3169238 109.3832630 153.5242081 204.3007895 110.7654462 152.4135654
 204.8770187 108.0872503 140.4953470 203.3789227 107.8082412 141.3949758
 205.8557693 106.0239571 140.9992213 204.3300396 105.8179919 140.3868611
 204.9890450 105.4287473 143.3648266 204.7267210 104.2131249 142.1814306
 202.5415027 106.2744618 142.8499114 202.6848803 104.7056479 143.6264419
 202.5713367 103.5561193 141.4587990 202.5609557 105.0797440 140.5867341
 200.4082828 105.7220481 141.5253643 200.3294417 104.1929961 142.4177257
 200.6241578 102.9446438 140.2343392 200.6697045 104.4771868 139.3687974
 198.3108941 103.4751213 141.0305216 198.4301443 103.4410585 139.2585859
 198.3631053 104.9973538 140.1113582 212.8950000 101.2070000 134.8990000
 202.4800000 113.1710000 144.1960000 208.7478435 115.6742258 145.1348018
 207.2186208 115.6833423 145.1348476 206.6539748 114.2613454 145.1339514
 205.1257844 114.2679019 145.1333803 204.5542430 112.8680000 145.1330000
 203.2000000 112.8680000 145.1330000 205.2044269 111.8357992 145.1324242
 202.2930000 113.7720000 142.3380000 201.9219627 113.7716082 143.4714083
 201.9189482 113.1556945 145.1354991 209.1170424 115.1398952 146.0182020
 209.1177372 115.1389623 144.2532715 206.8552267 116.2229011 144.2524328
 206.8541634 116.2229044 146.0173625 207.0201151 113.7174740 146.0129224
 207.0200361 113.7189952 144.2527225 204.7585586 114.7863983 144.2411832
 204.7587875 114.7858719 146.0266810 202.8077631 113.7613881 145.1330000
 211.4260000 104.0060000 158.4400000 212.8757774 111.1072005 159.8661438
 211.3666515 111.0217848 159.7792115 210.8069757 110.1186163 160.8702000
 209.3082477 110.0630210 160.7033451 208.6891405 109.1962373 161.7763042
 207.1828159 109.3281808 161.7017451 206.5650844 108.5270000 160.5530000
 205.0190000 108.5270000 160.5530000 204.4116962 109.9537263 160.5530000
 204.9095752 110.8802788 159.4404628 204.3548467 112.2937891 159.6630727
 204.8623630 113.2572987 158.5950697 204.3104345 114.6684171 158.8158251
 204.8189850 115.6086350 157.7206482 204.2722930 117.0237717 157.8977523
 204.7848685 117.9411607 156.7998112 204.4955855 107.8771111 161.9000708
 204.8144433 108.6950878 163.1444143 204.2723105 108.0554234 164.4188002
 204.7003195 108.9193543 165.5989314 204.1840424 108.3980436 166.9335243
 204.6719724 109.3118103 168.0572741 204.1825094 108.8330682 169.4144483
 204.6703657 109.7440515 170.5283876 204.4641881 107.6563906 159.3866574
 204.8177005 106.1705280 159.2764780 204.4239989 105.2358091 160.4249994
 202.9159551 105.2511187 160.6799279 202.2414240 104.6012166 159.4894070
 200.7330011 104.6719084 159.4980254 200.2528935 103.9763068 158.2265470
 198.7448128 103.9730083 158.1344067 210.9640000 104.2740000 157.4850000
 210.8870455 103.9033397 157.4926543 210.8045611 103.5714972 159.2325043
 213.1709754 111.5086320 160.8418291 213.3111727 110.1052427 159.7764485
 211.0639720 110.6346836 158.7990912 210.9248237 112.0214455 159.8788742
 211.0702239 110.5118512 161.8572884 211.2354698 109.1097144 160.7909043
 209.0513187 109.6777845 159.7165598 208.8948951 111.0810287 160.7743450
 209.0232658 109.5342563 162.7625970 209.0033866 108.1507500 161.6725358
 206.8937068 110.3839578 161.6565596 206.8706052 108.9863389 162.6688530
 206.8853425 107.4839625 160.6023618 206.8793881 108.9294737 159.5852644
 204.6582357 110.4226140 161.4954736 203.3233203 109.8396983 160.4992458
 204.5890002 110.5277926 158.4544638 206.0027742 110.9365952 159.4319588
 204.6589731 112.6535757 160.6541851 203.2585120 112.2642478 159.6506421
 204.5679548 112.8957877 157.6052164 205.9585354 113.2877619 158.6195471
 204.6160479 115.0371915 159.7895017 203.2137292 114.6437877 158.8002742
 204.5225892 115.2218654 156.7393420 205.9150986 115.6332493 157.7423350
 204.5727766 117.4227647 158.8737785 203.1770217 117.0073078 157.8743739
 205.8779208 118.0044951 156.8203196 204.3820697 118.9498999 156.9283585
 204.4818333 117.5768719 155.8123785 204.9500542 106.8859619 161.9811353
 203.4076585 107.7665741 161.7907896 204.3606181 109.6870562 163.0881875
 205.8958946 108.8257973 163.2402741 204.6577371 107.0330534 164.5320741
 203.1774861 107.9910040 164.3715076 204.3375385 109.9443520 165.4494737
 205.7965863 108.9704758 165.6291921 204.5456746 107.3738178 167.0998960
 203.0909449 108.3661222 166.9238867 204.3171845 110.3352743 167.8786315
 205.7674190 109.3478191 168.0541142 204.5367463 107.8121405 169.6021609
 203.0850939 108.8013802 169.4286289 205.7653060 109.7766533 170.5551465
 204.3169238 109.3832630 171.4992081 204.3007895 110.7654462 170.3885654
 204.8770187 108.0872503 158.4703470 203.3789227 107.8082412 159.3699758
 205.8557693 106.0239571 158.9742213 204.3300396 105.8179919 158.3618611
 204.9890450 105.4287473 161.3398266 204.7267210 104.2131249 160.1564306
 202.5415027 106.2744618 160.8249114 202.6848803 104.7056479 161.6014419
 202.5713367 103.5561193 159.4337990 202.5609557 105.0797440 158.5617341
 200.4082828 105.7220481 159.5003643 200.3294417 104.1929961 160.3927257
 200.6241578 102.9446438 158.2093392 200.6697045 104.4771868 157.3437974
 198.3108941 103.4751213 159.0055216 198.4301443 103.4410585 157.2335859
 198.3631053 104.9973538 158.0863582 212.8950000 101.2070000 152.8740000
 202.4800000 113.1710000 162.1710000 208.7478435 115.6742258 163.1098018
 207.2186208 115.6833423 163.1098476 206.6539748 114.2613454 163.1089514
 205.1257844 114.2679019 163.1083803 204.5542430 112.8680000 163.1080000
 203.2000000 112.8680000 163.1080000 205.2044269 111.8357992 163.1074242
 202.2930000 113.7720000 160.3130000 201.9219627 113.7716082 161.4464083
 201.9189482 113.1556945 163.1104991 209.1170424 115.1398952 163.9932020
 209.1177372 115.1389623 162.2282715 206.8552267 116.2229011 162.2274328
 206.8541634 116.2229044 163.9923625 207.0201151 113.7174740 163.9879224
 207.0200361 113.7189952 162.2277225 204.7585586 114.7863983 162.2161832
 204.7587875 114.7858719 164.0016810 202.8077631 113.7613881 163.1080000
 211.4260000 104.0060000 176.4150000 212.8757774 111.1072005 177.8411438
 211.3666515 111.0217848 177.7542115 210.8069757 110.1186163 178.8452000
 209.3082477 110.0630210 178.6783451 208.6891405 109.1962373 179.7513042
 207.1828159 109.3281808 179.6767451 206.5650844 108.5270000 178.5280000
 205.0190000 108.5270000 178.5280000 204.4116962 109.9537263 178.5280000
 204.9095752 110.8802788 177.4154628 204.3548467 112.2937891 177.6380727
 204.8623630 113.2572987 176.5700697 204.3104345 114.6684171 176.7908251
 204.8189850 115.6086350 175.6956482 204.2722930 117.0237717 175.8727523
 204.7848685 117.9411607 174.7748112 204.4955855 107.8771111 179.8750708
 204.8144433 108.6950878 181.1194143 204.2723105 108.0554234 182.3938002
 204.7003195 108.9193543 183.5739314 204.1840424 108.3980436 184.9085243
 204.6719724 109.3118103 186.0322741 204.1825094 108.8330682 187.3894483
 204.6703657 109.7440515 188.5033876 204.4641881 107.6563906 177.3616574
 204.8177005 106.1705280 177.2514780 204.4239989 105.2358091 178.3999994
 202.9159551 105.2511187 178.6549279 202.2414240 104.6012166 177.4644070
 200.7330011 104.6719084 177.4730254 200.2528935 103.9763068 176.2015470
 198.7448128 103.9730083 176.1094067 210.9640000 104.2740000 175.4600000
 210.8870455 103.9033397 175.4676543 210.8045611 103.5714972 177.2075043
 213.1709754 111.5086320 178.8168291 213.3111727 110.1052427 177.7514485
 211.0639720 110.6346836 176.7740912 210.9248237 112.0214455 177.8538742
 211.0702239 110.5118512 179.8322884 211.2354698 109.1097144 178.7659043
 209.0513187 109.6777845 177.6915598 208.8948951 111.0810287 178.7493450
 209.0232658 109.5342563 180.7375970 209.0033866 108.1507500 179.6475358
 206.8937068 110.3839578 179.6315596 206.8706052 108.9863389 180.6438530
 206.8853425 107.4839625 178.5773618 206.8793881 108.9294737 177.5602644
 204.6582357 110.4226140 179.4704736 203.3233203 109.8396983 178.4742458
 204.5890002 110.5277926 176.4294638 206.0027742 110.9365952 177.4069588
 204.6589731 112.6535757 178.6291851 203.2585120 112.2642478 177.6256421
 204.5679548 112.8957877 175.5802164 205.9585354 113.2877619 176.5945471
 204.6160479 115.0371915 177.7645017 203.2137292 114.6437877 176.7752742
 204.5225892 115.2218654 174.7143420 205.9150986 115.6332493 175.7173350
 204.5727766 117.4227647 176.8487785 203.1770217 117.0073078 175.8493739
 205.8779208 118.0044951 174.7953196 204.3820697 118.9498999 174.9033585
 204.4818333 117.5768719 173.7873785 204.9500542 106.8859619 179.9561353
 203.4076585 107.7665741 179.7657896 204.3606181 109.6870562 181.0631875
 205.8958946 108.8257973 181.2152741 204.6577371 107.0330534 182.5070741
 203.1774861 107.9910040 182.3465076 204.3375385 109.9443520 183.4244737
 205.7965863 108.9704758 183.6041921 204.5456746 107.3738178 185.0748960
 203.0909449 108.3661222 184.8988867 204.3171845 110.3352743 185.8536315
 205.7674190 109.3478191 186.0291142 204.5367463 107.8121405 187.5771609
 203.0850939 108.8013802 187.4036289 205.7653060 109.7766533 188.5301465
 204.3169238 109.3832630 189.4742081 204.3007895 110.7654462 188.3635654
 204.8770187 108.0872503 176.4453470 203.3789227 107.8082412 177.3449758
 205.8557693 106.0239571 176.9492213 204.3300396 105.8179919 176.3368611
 204.9890450 105.4287473 179.3148266 204.7267210 104.2131249 178.1314306
 202.5415027 106.2744618 178.7999114 202.6848803 104.7056479 179.5764419
 202.5713367 103.5561193 177.4087990 202.5609557 105.0797440 176.5367341
 200.4082828 105.7220481 177.4753643 200.3294417 104.1929961 178.3677257
 200.6241578 102.9446438 176.1843392 200.6697045 104.4771868 175.3187974
 198.3108941 103.4751213 176.9805216 198.4301443 103.4410585 175.2085859
 198.3631053 104.9973538 176.0613582 212.8950000 101.2070000 170.8490000
 202.4800000 113.1710000 180.1460000 208.7478435 115.6742258 181.0848018
 207.2186208 115.6833423 181.0848476 206.6539748 114.2613454 181.0839514
 205.1257844 114.2679019 181.0833803 204.5542430 112.8680000 181.0830000
 203.2000000 112.8680000 181.0830000 205.2044269 111.8357992 181.0824242
 202.2930000 113.7720000 178.2880000 201.9219627 113.7716082 179.4214083
 201.9189482 113.1556945 181.0854991 209.1170424 115.1398952 181.9682020
 209.1177372 115.1389623 180.2032715 206.8552267 116.2229011 180.2024328
 206.8541634 116.2229044 181.9673625 207.0201151 113.7174740 181.9629224
 207.0200361 113.7189952 180.2027225 204.7585586 114.7863983 180.1911832
 204.7587875 114.7858719 181.9766810 202.8077631 113.7613881 181.0830000
 211.4260000 122.6100000  68.5660000 212.8757774 129.7112005  69.9921438
 211.3666515 129.6257848  69.9052115 210.8069757 128.7226163  70.9962000
 209.3082477 128.6670210  70.8293451 208.6891405 127.8002373  71.9023042
 207.1828159 127.9321808  71.8277451 206.5650844 127.1310000  70.6790000
 205.0190000 127.1310000  70.6790000 204.4116962 128.5577263  70.6790000
 204.9095752 129.4842788  69.5664628 204.3548467 130.8977891  69.7890727
 204.8623630 131.8612987  68.7210697 204.3104345 133.2724171  68.9418251
 204.8189850 134.2126350  67.8466482 204.2722930 135.6277717  68.0237523
 204.7848685 136.5451607  66.9258112 204.4955855 126.4811111  72.0260708
 204.8144433 127.2990878  73.2704143 204.2723105 126.6594234  74.5448002
 204.7003195 127.5233543  75.7249314 204.1840424 127.0020436  77.0595243
 204.6719724 127.9158103  78.1832741 204.1825094 127.4370682  79.5404483
 204.6703657 128.3480515  80.6543876 204.4641881 126.2603906  69.5126574
 204.8177005 124.7745280  69.4024780 204.4239989 123.8398091  70.5509994
 202.9159551 123.8551187  70.8059279 202.2414240 123.2052166  69.6154070
 200.7330011 123.2759084  69.6240254 200.2528935 122.5803068  68.3525470
 198.7448128 122.5770083  68.2604067 210.9640000 122.8780000  67.6110000
 210.8870455 122.5073397  67.6186543 210.8045611 122.1754972  69.3585043
 213.1709754 130.1126320  70.9678291 213.3111727 128.7092427  69.9024485
 211.0639720 129.2386836  68.9250912 210.9248237 130.6254455  70.0048742
 211.0702239 129.1158512  71.9832884 211.2354698 127.7137144  70.9169043
 209.0513187 128.2817845  69.8425598 208.8948951 129.6850287  70.9003450
 209.0232658 128.1382563  72.8885970 209.0033866 126.7547500  71.7985358
 206.8937068 128.9879578  71.7825596 206.8706052 127.5903389  72.7948530
 206.8853425 126.0879625  70.7283618 206.8793881 127.5334737  69.7112644
 204.6582357 129.0266140  71.6214736 203.3233203 128.4436983  70.6252458
 204.5890002 129.1317926  68.5804638 206.0027742 129.5405952  69.5579588
 204.6589731 131.2575757  70.7801851 203.2585120 130.8682478  69.7766421
 204.5679548 131.4997877  67.7312164 205.9585354 131.8917619  68.7455471
 204.6160479 133.6411915  69.9155017 203.2137292 133.2477877  68.9262742
 204.5225892 133.8258654  66.8653420 205.9150986 134.2372493  67.8683350
 204.5727766 136.0267647  68.9997785 203.1770217 135.6113078  68.0003739
 205.8779208 136.6084951  66.9463196 204.3820697 137.5538999  67.0543585
 204.4818333 136.1808719  65.9383785 204.9500542 125.4899619  72.1071353
 203.4076585 126.3705741  71.9167896 204.3606181 128.2910562  73.2141875
 205.8958946 127.4297973  73.3662741 204.6577371 125.6370534  74.6580741
 203.1774861 126.5950040  74.4975076 204.3375385 128.5483520  75.5754737
 205.7965863 127.5744758  75.7551921 204.5456746 125.9778178  77.2258960
 203.0909449 126.9701222  77.0498867 204.3171845 128.9392743  78.0046315
 205.7674190 127.9518191  78.1801142 204.5367463 126.4161405  79.7281609
 203.0850939 127.4053802  79.5546289 205.7653060 128.3806533  80.6811465
 204.3169238 127.9872630  81.6252081 204.3007895 129.3694462  80.5145654
 204.8770187 126.6912503  68.5963470 203.3789227 126.4122412  69.4959758
 205.8557693 124.6279571  69.1002213 204.3300396 124.4219919  68.4878611
 204.9890450 124.0327473  71.4658266 204.7267210 122.8171249  70.2824306
 202.5415027 124.8784618  70.9509114 202.6848803 123.3096479  71.7274419
 202.5713367 122.1601193  69.5597990 202.5609557 123.6837440  68.6877341
 200.4082828 124.3260481  69.6263643 200.3294417 122.7969961  70.5187257
 200.6241578 121.5486438  68.3353392 200.6697045 123.0811868  67.4697974
 198.3108941 122.0791213  69.1315216 198.4301443 122.0450585  67.3595859
 198.3631053 123.6013538  68.2123582 212.8950000 119.8110000  63.0000000
 202.4800000 131.7750000  72.2970000 208.7478435 134.2782258  73.2358018
 207.2186208 134.2873423  73.2358476 206.6539748 132.8653454  73.2349514
 205.1257844 132.8719019  73.2343803 204.5542430 131.4720000  73.2340000
 203.2000000 131.4720000  73.2340000 205.2044269 130.4397992  73.2334242
 202.2930000 132.3760000  70.4390000 201.9219627 132.3756082  71.5724083
 201.9189482 131.7596945  73.2364991 209.1170424 133.7438952  74.1192020
 209.1177372 133.7429623  72.3542715 206.8552267 134.8269011  72.3534328
 206.8541634 134.8269044  74.1183625 207.0201151 132.3214740  74.1139224
 207.0200361 132.3229952  72.3537225 204.7585586 133.3903983  72.3421832
 204.7587875 133.3898719  74.1276810 202.8077631 132.3653881  73.2340000
 211.4260000 122.6100000  86.5410000 212.8757774 129.7112005  87.9671438
 211.3666515 129.6257848  87.8802115 210.8069757 128.7226163  88.9712000
 209.3082477 128.6670210  88.8043451 208.6891405 127.8002373  89.8773042
 207.1828159 127.9321808  89.8027451 206.5650844 127.1310000  88.6540000
 205.0190000 127.1310000  88.6540000 204.4116962 128.5577263  88.6540000
 204.9095752 129.4842788  87.5414628 204.3548467 130.8977891  87.7640727
 204.8623630 131.8612987  86.6960697 204.3104345 133.2724171  86.9168251
 204.8189850 134.2126350  85.8216482 204.2722930 135.6277717  85.9987523
 204.7848685 136.5451607  84.9008112 204.4955855 126.4811111  90.0010708
 204.8144433 127.2990878  91.2454143 204.2723105 126.6594234  92.5198002
 204.7003195 127.5233543  93.6999314 204.1840424 127.0020436  95.0345243
 204.6719724 127.9158103  96.1582741 204.1825094 127.4370682  97.5154483
 204.6703657 128.3480515  98.6293876 204.4641881 126.2603906  87.4876574
 204.8177005 124.7745280  87.3774780 204.4239989 123.8398091  88.5259994
 202.9159551 123.8551187  88.7809279 202.2414240 123.2052166  87.5904070
 200.7330011 123.2759084  87.5990254 200.2528935 122.5803068  86.3275470
 198.7448128 122.5770083  86.2354067 210.9640000 122.8780000  85.5860000
 210.8870455 122.5073397  85.5936543 210.8045611 122.1754972  87.3335043
 213.1709754 130.1126320  88.9428291 213.3111727 128.7092427  87.8774485
 211.0639720 129.2386836  86.9000912 210.9248237 130.6254455  87.9798742
 211.0702239 129.1158512  89.9582884 211.2354698 127.7137144  88.8919043
 209.0513187 128.2817845  87.8175598 208.8948951 129.6850287  88.8753450
 209.0232658 128.1382563  90.8635970 209.0033866 126.7547500  89.7735358
 206.8937068 128.9879578  89.7575596 206.8706052 127.5903389  90.7698530
 206.8853425 126.0879625  88.7033618 206.8793881 127.5334737  87.6862644
 204.6582357 129.0266140  89.5964736 203.3233203 128.4436983  88.6002458
 204.5890002 129.1317926  86.5554638 206.0027742 129.5405952  87.5329588
 204.6589731 131.2575757  88.7551851 203.2585120 130.8682478  87.7516421
 204.5679548 131.4997877  85.7062164 205.9585354 131.8917619  86.7205471
 204.6160479 133.6411915  87.8905017 203.2137292 133.2477877  86.9012742
 204.5225892 133.8258654  84.8403420 205.9150986 134.2372493  85.8433350
 204.5727766 136.0267647  86.9747785 203.1770217 135.6113078  85.9753739
 205.8779208 136.6084951  84.9213196 204.3820697 137.5538999  85.0293585
 204.4818333 136.1808719  83.9133785 204.9500542 125.4899619  90.0821353
 203.4076585 126.3705741  89.8917896 204.3606181 128.2910562  91.1891875
 205.8958946 127.4297973  91.3412741 204.6577371 125.6370534  92.6330741
 203.1774861 126.5950040  92.4725076 204.3375385 128.5483520  93.5504737
 205.7965863 127.5744758  93.7301921 204.5456746 125.9778178  95.2008960
 203.0909449 126.9701222  95.0248867 204.3171845 128.9392743  95.9796315
 205.7674190 127.9518191  96.1551142 204.5367463 126.4161405  97.7031609
 203.0850939 127.4053802  97.5296289 205.7653060 128.3806533  98.6561465
 204.3169238 127.9872630  99.6002081 204.3007895 129.3694462  98.4895654
 204.8770187 126.6912503  86.5713470 203.3789227 126.4122412  87.4709758
 205.8557693 124.6279571  87.0752213 204.3300396 124.4219919  86.4628611
 204.9890450 124.0327473  89.4408266 204.7267210 122.8171249  88.2574306
 202.5415027 124.8784618  88.9259114 202.6848803 123.3096479  89.7024419
 202.5713367 122.1601193  87.5347990 202.5609557 123.6837440  86.6627341
 200.4082828 124.3260481  87.6013643 200.3294417 122.7969961  88.4937257
 200.6241578 121.5486438  86.3103392 200.6697045 123.0811868  85.4447974
 198.3108941 122.0791213  87.1065216 198.4301443 122.0450585  85.3345859
 198.3631053 123.6013538  86.1873582 212.8950000 119.8110000  80.9750000
 202.4800000 131.7750000  90.2720000 208.7478435 134.2782258  91.2108018
 207.2186208 134.2873423  91.2108476 206.6539748 132.8653454  91.2099514
 205.1257844 132.8719019  91.2093803 204.5542430 131.4720000  91.2090000
 203.2000000 131.4720000  91.2090000 205.2044269 130.4397992  91.2084242
 202.2930000 132.3760000  88.4140000 201.9219627 132.3756082  89.5474083
 201.9189482 131.7596945  91.2114991 209.1170424 133.7438952  92.0942020
 209.1177372 133.7429623  90.3292715 206.8552267 134.8269011  90.3284328
 206.8541634 134.8269044  92.0933625 207.0201151 132.3214740  92.0889224
 207.0200361 132.3229952  90.3287225 204.7585586 133.3903983  90.3171832
 204.7587875 133.3898719  92.1026810 202.8077631 132.3653881  91.2090000
 211.4260000 122.6100000 104.5160000 212.8757774 129.7112005 105.9421438
 211.3666515 129.6257848 105.8552115 210.8069757 128.7226163 106.9462000
 209.3082477 128.6670210 106.7793451 208.6891405 127.8002373 107.8523042
 207.1828159 127.9321808 107.7777451 206.5650844 127.1310000 106.6290000
 205.0190000 127.1310000 106.6290000 204.4116962 128.5577263 106.6290000
 204.9095752 129.4842788 105.5164628 204.3548467 130.8977891 105.7390727
 204.8623630 131.8612987 104.6710697 204.3104345 133.2724171 104.8918251
 204.8189850 134.2126350 103.7966482 204.2722930 135.6277717 103.9737523
 204.7848685 136.5451607 102.8758112 204.4955855 126.4811111 107.9760708
 204.8144433 127.2990878 109.2204143 204.2723105 126.6594234 110.4948002
 204.7003195 127.5233543 111.6749314 204.1840424 127.0020436 113.0095243
 204.6719724 127.9158103 114.1332741 204.1825094 127.4370682 115.4904483
 204.6703657 128.3480515 116.6043876 204.4641881 126.2603906 105.4626574
 204.8177005 124.7745280 105.3524780 204.4239989 123.8398091 106.5009994
 202.9159551 123.8551187 106.7559279 202.2414240 123.2052166 105.5654070
 200.7330011 123.2759084 105.5740254 200.2528935 122.5803068 104.3025470
 198.7448128 122.5770083 104.2104067 210.9640000 122.8780000 103.5610000
 210.8870455 122.5073397 103.5686543 210.8045611 122.1754972 105.3085043
 213.1709754 130.1126320 106.9178291 213.3111727 128.7092427 105.8524485
 211.0639720 129.2386836 104.8750912 210.9248237 130.6254455 105.9548742
 211.0702239 129.1158512 107.9332884 211.2354698 127.7137144 106.8669043
 209.0513187 128.2817845 105.7925598 208.8948951 129.6850287 106.8503450
 209.0232658 128.1382563 108.8385970 209.0033866 126.7547500 107.7485358
 206.8937068 128.9879578 107.7325596 206.8706052 127.5903389 108.7448530
 206.8853425 126.0879625 106.6783618 206.8793881 127.5334737 105.6612644
 204.6582357 129.0266140 107.5714736 203.3233203 128.4436983 106.5752458
 204.5890002 129.1317926 104.5304638 206.0027742 129.5405952 105.5079588
 204.6589731 131.2575757 106.7301851 203.2585120 130.8682478 105.7266421
 204.5679548 131.4997877 103.6812164 205.9585354 131.8917619 104.6955471
 204.6160479 133.6411915 105.8655017 203.2137292 133.2477877 104.8762742
 204.5225892 133.8258654 102.8153420 205.9150986 134.2372493 103.8183350
 204.5727766 136.0267647 104.9497785 203.1770217 135.6113078 103.9503739
 205.8779208 136.6084951 102.8963196 204.3820697 137.5538999 103.0043585
 204.4818333 136.1808719 101.8883785 204.9500542 125.4899619 108.0571353
 203.4076585 126.3705741 107.8667896 204.3606181 128.2910562 109.1641875
 205.8958946 127.4297973 109.3162741 204.6577371 125.6370534 110.6080741
 203.1774861 126.5950040 110.4475076 204.3375385 128.5483520 111.5254737
 205.7965863 127.5744758 111.7051921 204.5456746 125.9778178 113.1758960
 203.0909449 126.9701222 112.9998867 204.3171845 128.9392743 113.9546315
 205.7674190 127.9518191 114.1301142 204.5367463 126.4161405 115.6781609
 203.0850939 127.4053802 115.5046289 205.7653060 128.3806533 116.6311465
 204.3169238 127.9872630 117.5752081 204.3007895 129.3694462 116.4645654
 204.8770187 126.6912503 104.5463470 203.3789227 126.4122412 105.4459758
 205.8557693 124.6279571 105.0502213 204.3300396 124.4219919 104.4378611
 204.9890450 124.0327473 107.4158266 204.7267210 122.8171249 106.2324306
 202.5415027 124.8784618 106.9009114 202.6848803 123.3096479 107.6774419
 202.5713367 122.1601193 105.5097990 202.5609557 123.6837440 104.6377341
 200.4082828 124.3260481 105.5763643 200.3294417 122.7969961 106.4687257
 200.6241578 121.5486438 104.2853392 200.6697045 123.0811868 103.4197974
 198.3108941 122.0791213 105.0815216 198.4301443 122.0450585 103.3095859
 198.3631053 123.6013538 104.1623582 212.8950000 119.8110000  98.9500000
 202.4800000 131.7750000 108.2470000 208.7478435 134.2782258 109.1858018
 207.2186208 134.2873423 109.1858476 206.6539748 132.8653454 109.1849514
 205.1257844 132.8719019 109.1843803 204.5542430 131.4720000 109.1840000
 203.2000000 131.4720000 109.1840000 205.2044269 130.4397992 109.1834242
 202.2930000 132.3760000 106.3890000 201.9219627 132.3756082 107.5224083
 201.9189482 131.7596945 109.1864991 209.1170424 133.7438952 110.0692020
 209.1177372 133.7429623 108.3042715 206.8552267 134.8269011 108.3034328
 206.8541634 134.8269044 110.0683625 207.0201151 132.3214740 110.0639224
 207.0200361 132.3229952 108.3037225 204.7585586 133.3903983 108.2921832
 204.7587875 133.3898719 110.0776810 202.8077631 132.3653881 109.1840000
 211.4260000 122.6100000 122.4900000 212.8757774 129.7112005 123.9161438
 211.3666515 129.6257848 123.8292115 210.8069757 128.7226163 124.9202000
 209.3082477 128.6670210 124.7533451 208.6891405 127.8002373 125.8263042
 207.1828159 127.9321808 125.7517451 206.5650844 127.1310000 124.6030000
 205.0190000 127.1310000 124.6030000 204.4116962 128.5577263 124.6030000
 204.9095752 129.4842788 123.4904628 204.3548467 130.8977891 123.7130727
 204.8623630 131.8612987 122.6450697 204.3104345 133.2724171 122.8658251
 204.8189850 134.2126350 121.7706482 204.2722930 135.6277717 121.9477523
 204.7848685 136.5451607 120.8498112 204.4955855 126.4811111 125.9500708
 204.8144433 127.2990878 127.1944143 204.2723105 126.6594234 128.4688002
 204.7003195 127.5233543 129.6489314 204.1840424 127.0020436 130.9835243
 204.6719724 127.9158103 132.1072741 204.1825094 127.4370682 133.4644483
 204.6703657 128.3480515 134.5783876 204.4641881 126.2603906 123.4366574
 204.8177005 124.7745280 123.3264780 204.4239989 123.8398091 124.4749994
 202.9159551 123.8551187 124.7299279 202.2414240 123.2052166 123.5394070
 200.7330011 123.2759084 123.5480254 200.2528935 122.5803068 122.2765470
 198.7448128 122.5770083 122.1844067 210.9640000 122.8780000 121.5350000
 210.8870455 122.5073397 121.5426543 210.8045611 122.1754972 123.2825043
 213.1709754 130.1126320 124.8918291 213.3111727 128.7092427 123.8264485
 211.0639720 129.2386836 122.8490912 210.9248237 130.6254455 123.9288742
 211.0702239 129.1158512 125.9072884 211.2354698 127.7137144 124.8409043
 209.0513187 128.2817845 123.7665598 208.8948951 129.6850287 124.8243450
 209.0232658 128.1382563 126.8125970 209.0033866 126.7547500 125.7225358
 206.8937068 128.9879578 125.7065596 206.8706052 127.5903389 126.7188530
 206.8853425 126.0879625 124.6523618 206.8793881 127.5334737 123.6352644
 204.6582357 129.0266140 125.5454736 203.3233203 128.4436983 124.5492458
 204.5890002 129.1317926 122.5044638 206.0027742 129.5405952 123.4819588
 204.6589731 131.2575757 124.7041851 203.2585120 130.8682478 123.7006421
 204.5679548 131.4997877 121.6552164 205.9585354 131.8917619 122.6695471
 204.6160479 133.6411915 123.8395017 203.2137292 133.2477877 122.8502742
 204.5225892 133.8258654 120.7893420 205.9150986 134.2372493 121.7923350
 204.5727766 136.0267647 122.9237785 203.1770217 135.6113078 121.9243739
 205.8779208 136.6084951 120.8703196 204.3820697 137.5538999 120.9783585
 204.4818333 136.1808719 119.8623785 204.9500542 125.4899619 126.0311353
 203.4076585 126.3705741 125.8407896 204.3606181 128.2910562 127.1381875
 205.8958946 127.4297973 127.2902741 204.6577371 125.6370534 128.5820741
 203.1774861 126.5950040 128.4215076 204.3375385 128.5483520 129.4994737
 205.7965863 127.5744758 129.6791921 204.5456746 125.9778178 131.1498960
 203.0909449 126.9701222 130.9738867 204.3171845 128.9392743 131.9286315
 205.7674190 127.9518191 132.1041142 204.5367463 126.4161405 133.6521609
 203.0850939 127.4053802 133.4786289 205.7653060 128.3806533 134.6051465
 204.3169238 127.9872630 135.5492081 204.3007895 129.3694462 134.4385654
 204.8770187 126.6912503 122.5203470 203.3789227 126.4122412 123.4199758
 205.8557693 124.6279571 123.0242213 204.3300396 124.4219919 122.4118611
 204.9890450 124.0327473 125.3898266 204.7267210 122.8171249 124.2064306
 202.5415027 124.8784618 124.8749114 202.6848803 123.3096479 125.6514419
 202.5713367 122.1601193 123.4837990 202.5609557 123.6837440 122.6117341
 200.4082828 124.3260481 123.5503643 200.3294417 122.7969961 124.4427257
 200.6241578 121.5486438 122.2593392 200.6697045 123.0811868 121.3937974
 198.3108941 122.0791213 123.0555216 198.4301443 122.0450585 121.2835859
 198.3631053 123.6013538 122.1363582 212.8950000 119.8110000 116.9240000
 202.4800000 131.7750000 126.2210000 208.7478435 134.2782258 127.1598018
 207.2186208 134.2873423 127.1598476 206.6539748 132.8653454 127.1589514
 205.1257844 132.8719019 127.1583803 204.5542430 131.4720000 127.1580000
 203.2000000 131.4720000 127.1580000 205.2044269 130.4397992 127.1574242
 202.2930000 132.3760000 124.3630000 201.9219627 132.3756082 125.4964083
 201.9189482 131.7596945 127.1604991 209.1170424 133.7438952 128.0432020
 209.1177372 133.7429623 126.2782715 206.8552267 134.8269011 126.2774328
 206.8541634 134.8269044 128.0423625 207.0201151 132.3214740 128.0379224
 207.0200361 132.3229952 126.2777225 204.7585586 133.3903983 126.2661832
 204.7587875 133.3898719 128.0516810 202.8077631 132.3653881 127.1580000
 211.4260000 122.6100000 140.4650000 212.8757774 129.7112005 141.8911438
 211.3666515 129.6257848 141.8042115 210.8069757 128.7226163 142.8952000
 209.3082477 128.6670210 142.7283451 208.6891405 127.8002373 143.8013042
 207.1828159 127.9321808 143.7267451 206.5650844 127.1310000 142.5780000
 205.0190000 127.1310000 142.5780000 204.4116962 128.5577263 142.5780000
 204.9095752 129.4842788 141.4654628 204.3548467 130.8977891 141.6880727
 204.8623630 131.8612987 140.6200697 204.3104345 133.2724171 140.8408251
 204.8189850 134.2126350 139.7456482 204.2722930 135.6277717 139.9227523
 204.7848685 136.5451607 138.8248112 204.4955855 126.4811111 143.9250708
 204.8144433 127.2990878 145.1694143 204.2723105 126.6594234 146.4438002
 204.7003195 127.5233543 147.6239314 204.1840424 127.0020436 148.9585243
 204.6719724 127.9158103 150.0822741 204.1825094 127.4370682 151.4394483
 204.6703657 128.3480515 152.5533876 204.4641881 126.2603906 141.4116574
 204.8177005 124.7745280 141.3014780 204.4239989 123.8398091 142.4499994
 202.9159551 123.8551187 142.7049279 202.2414240 123.2052166 141.5144070
 200.7330011 123.2759084 141.5230254 200.2528935 122.5803068 140.2515470
 198.7448128 122.5770083 140.1594067 210.9640000 122.8780000 139.5100000
 210.8870455 122.5073397 139.5176543 210.8045611 122.1754972 141.2575043
 213.1709754 130.1126320 142.8668291 213.3111727 128.7092427 141.8014485
 211.0639720 129.2386836 140.8240912 210.9248237 130.6254455 141.9038742
 211.0702239 129.1158512 143.8822884 211.2354698 127.7137144 142.8159043
 209.0513187 128.2817845 141.7415598 208.8948951 129.6850287 142.7993450
 209.0232658 128.1382563 144.7875970 209.0033866 126.7547500 143.6975358
 206.8937068 128.9879578 143.6815596 206.8706052 127.5903389 144.6938530
 206.8853425 126.0879625 142.6273618 206.8793881 127.5334737 141.6102644
 204.6582357 129.0266140 143.5204736 203.3233203 128.4436983 142.5242458
 204.5890002 129.1317926 140.4794638 206.0027742 129.5405952 141.4569588
 204.6589731 131.2575757 142.6791851 203.2585120 130.8682478 141.6756421
 204.5679548 131.4997877 139.6302164 205.9585354 131.8917619 140.6445471
 204.6160479 133.6411915 141.8145017 203.2137292 133.2477877 140.8252742
 204.5225892 133.8258654 138.7643420 205.9150986 134.2372493 139.7673350
 204.5727766 136.0267647 140.8987785 203.1770217 135.6113078 139.8993739
 205.8779208 136.6084951 138.8453196 204.3820697 137.5538999 138.9533585
 204.4818333 136.1808719 137.8373785 204.9500542 125.4899619 144.0061353
 203.4076585 126.3705741 143.8157896 204.3606181 128.2910562 145.1131875
 205.8958946 127.4297973 145.2652741 204.6577371 125.6370534 146.5570741
 203.1774861 126.5950040 146.3965076 204.3375385 128.5483520 147.4744737
 205.7965863 127.5744758 147.6541921 204.5456746 125.9778178 149.1248960
 203.0909449 126.9701222 148.9488867 204.3171845 128.9392743 149.9036315
 205.7674190 127.9518191 150.0791142 204.5367463 126.4161405 151.6271609
 203.0850939 127.4053802 151.4536289 205.7653060 128.3806533 152.5801465
 204.3169238 127.9872630 153.5242081 204.3007895 129.3694462 152.4135654
 204.8770187 126.6912503 140.4953470 203.3789227 126.4122412 141.3949758
 205.8557693 124.6279571 140.9992213 204.3300396 124.4219919 140.3868611
 204.9890450 124.0327473 143.3648266 204.7267210 122.8171249 142.1814306
 202.5415027 124.8784618 142.8499114 202.6848803 123.3096479 143.6264419
 202.5713367 122.1601193 141.4587990 202.5609557 123.6837440 140.5867341
 200.4082828 124.3260481 141.5253643 200.3294417 122.7969961 142.4177257
 200.6241578 121.5486438 140.2343392 200.6697045 123.0811868 139.3687974
 198.3108941 122.0791213 141.0305216 198.4301443 122.0450585 139.2585859
 198.3631053 123.6013538 140.1113582 212.8950000 119.8110000 134.8990000
 202.4800000 131.7750000 144.1960000 208.7478435 134.2782258 145.1348018
 207.2186208 134.2873423 145.1348476 206.6539748 132.8653454 145.1339514
 205.1257844 132.8719019 145.1333803 204.5542430 131.4720000 145.1330000
 203.2000000 131.4720000 145.1330000 205.2044269 130.4397992 145.1324242
 202.2930000 132.3760000 142.3380000 201.9219627 132.3756082 143.4714083
 201.9189482 131.7596945 145.1354991 209.1170424 133.7438952 146.0182020
 209.1177372 133.7429623 144.2532715 206.8552267 134.8269011 144.2524328
 206.8541634 134.8269044 146.0173625 207.0201151 132.3214740 146.0129224
 207.0200361 132.3229952 144.2527225 204.7585586 133.3903983 144.2411832
 204.7587875 133.3898719 146.0266810 202.8077631 132.3653881 145.1330000
 211.4260000 122.6100000 158.4400000 212.8757774 129.7112005 159.8661438
 211.3666515 129.6257848 159.7792115 210.8069757 128.7226163 160.8702000
 209.3082477 128.6670210 160.7033451 208.6891405 127.8002373 161.7763042
 207.1828159 127.9321808 161.7017451 206.5650844 127.1310000 160.5530000
 205.0190000 127.1310000 160.5530000 204.4116962 128.5577263 160.5530000
 204.9095752 129.4842788 159.4404628 204.3548467 130.8977891 159.6630727
 204.8623630 131.8612987 158.5950697 204.3104345 133.2724171 158.8158251
 204.8189850 134.2126350 157.7206482 204.2722930 135.6277717 157.8977523
 204.7848685 136.5451607 156.7998112 204.4955855 126.4811111 161.9000708
 204.8144433 127.2990878 163.1444143 204.2723105 126.6594234 164.4188002
 204.7003195 127.5233543 165.5989314 204.1840424 127.0020436 166.9335243
 204.6719724 127.9158103 168.0572741 204.1825094 127.4370682 169.4144483
 204.6703657 128.3480515 170.5283876 204.4641881 126.2603906 159.3866574
 204.8177005 124.7745280 159.2764780 204.4239989 123.8398091 160.4249994
 202.9159551 123.8551187 160.6799279 202.2414240 123.2052166 159.4894070
 200.7330011 123.2759084 159.4980254 200.2528935 122.5803068 158.2265470
 198.7448128 122.5770083 158.1344067 210.9640000 122.8780000 157.4850000
 210.8870455 122.5073397 157.4926543 210.8045611 122.1754972 159.2325043
 213.1709754 130.1126320 160.8418291 213.3111727 128.7092427 159.7764485
 211.0639720 129.2386836 158.7990912 210.9248237 130.6254455 159.8788742
 211.0702239 129.1158512 161.8572884 211.2354698 127.7137144 160.7909043
 209.0513187 128.2817845 159.7165598 208.8948951 129.6850287 160.7743450
 209.0232658 128.1382563 162.7625970 209.0033866 126.7547500 161.6725358
 206.8937068 128.9879578 161.6565596 206.8706052 127.5903389 162.6688530
 206.8853425 126.0879625 160.6023618 206.8793881 127.5334737 159.5852644
 204.6582357 129.0266140 161.4954736 203.3233203 128.4436983 160.4992458
 204.5890002 129.1317926 158.4544638 206.0027742 129.5405952 159.4319588
 204.6589731 131.2575757 160.6541851 203.2585120 130.8682478 159.6506421
 204.5679548 131.4997877 157.6052164 205.9585354 131.8917619 158.6195471
 204.6160479 133.6411915 159.7895017 203.2137292 133.2477877 158.8002742
 204.5225892 133.8258654 156.7393420 205.9150986 134.2372493 157.7423350
 204.5727766 136.0267647 158.8737785 203.1770217 135.6113078 157.8743739
 205.8779208 136.6084951 156.8203196 204.3820697 137.5538999 156.9283585
 204.4818333 136.1808719 155.8123785 204.9500542 125.4899619 161.9811353
 203.4076585 126.3705741 161.7907896 204.3606181 128.2910562 163.0881875
 205.8958946 127.4297973 163.2402741 204.6577371 125.6370534 164.5320741
 203.1774861 126.5950040 164.3715076 204.3375385 128.5483520 165.4494737
 205.7965863 127.5744758 165.6291921 204.5456746 125.9778178 167.0998960
 203.0909449 126.9701222 166.9238867 204.3171845 128.9392743 167.8786315
 205.7674190 127.9518191 168.0541142 204.5367463 126.4161405 169.6021609
 203.0850939 127.4053802 169.4286289 205.7653060 128.3806533 170.5551465
 204.3169238 127.9872630 171.4992081 204.3007895 129.3694462 170.3885654
 204.8770187 126.6912503 158.4703470 203.3789227 126.4122412 159.3699758
 205.8557693 124.6279571 158.9742213 204.3300396 124.4219919 158.3618611
 204.9890450 124.0327473 161.3398266 204.7267210 122.8171249 160.1564306
 202.5415027 124.8784618 160.8249114 202.6848803 123.3096479 161.6014419
 202.5713367 122.1601193 159.4337990 202.5609557 123.6837440 158.5617341
 200.4082828 124.3260481 159.5003643 200.3294417 122.7969961 160.3927257
 200.6241578 121.5486438 158.2093392 200.6697045 123.0811868 157.3437974
 198.3108941 122.0791213 159.0055216 198.4301443 122.0450585 157.2335859
 198.3631053 123.6013538 158.0863582 212.8950000 119.8110000 152.8740000
 202.4800000 131.7750000 162.1710000 208.7478435 134.2782258 163.1098018
 207.2186208 134.2873423 163.1098476 206.6539748 132.8653454 163.1089514
 205.1257844 132.8719019 163.1083803 204.5542430 131.4720000 163.1080000
 203.2000000 131.4720000 163.1080000 205.2044269 130.4397992 163.1074242
 202.2930000 132.3760000 160.3130000 201.9219627 132.3756082 161.4464083
 201.9189482 131.7596945 163.1104991 209.1170424 133.7438952 163.9932020
 209.1177372 133.7429623 162.2282715 206.8552267 134.8269011 162.2274328
 206.8541634 134.8269044 163.9923625 207.0201151 132.3214740 163.9879224
 207.0200361 132.3229952 162.2277225 204.7585586 133.3903983 162.2161832
 204.7587875 133.3898719 164.0016810 202.8077631 132.3653881 163.1080000
 211.4260000 122.6100000 176.4150000 212.8757774 129.7112005 177.8411438
 211.3666515 129.6257848 177.7542115 210.8069757 128.7226163 178.8452000
 209.3082477 128.6670210 178.6783451 208.6891405 127.8002373 179.7513042
 207.1828159 127.9321808 179.6767451 206.5650844 127.1310000 178.5280000
 205.0190000 127.1310000 178.5280000 204.4116962 128.5577263 178.5280000
 204.9095752 129.4842788 177.4154628 204.3548467 130.8977891 177.6380727
 204.8623630 131.8612987 176.5700697 204.3104345 133.2724171 176.7908251
 204.8189850 134.2126350 175.6956482 204.2722930 135.6277717 175.8727523
 204.7848685 136.5451607 174.7748112 204.4955855 126.4811111 179.8750708
 204.8144433 127.2990878 181.1194143 204.2723105 126.6594234 182.3938002
 204.7003195 127.5233543 183.5739314 204.1840424 127.0020436 184.9085243
 204.6719724 127.9158103 186.0322741 204.1825094 127.4370682 187.3894483
 204.6703657 128.3480515 188.5033876 204.4641881 126.2603906 177.3616574
 204.8177005 124.7745280 177.2514780 204.4239989 123.8398091 178.3999994
 202.9159551 123.8551187 178.6549279 202.2414240 123.2052166 177.4644070
 200.7330011 123.2759084 177.4730254 200.2528935 122.5803068 176.2015470
 198.7448128 122.5770083 176.1094067 210.9640000 122.8780000 175.4600000
 210.8870455 122.5073397 175.4676543 210.8045611 122.1754972 177.2075043
 213.1709754 130.1126320 178.8168291 213.3111727 128.7092427 177.7514485
 211.0639720 129.2386836 176.7740912 210.9248237 130.6254455 177.8538742
 211.0702239 129.1158512 179.8322884 211.2354698 127.7137144 178.7659043
 209.0513187 128.2817845 177.6915598 208.8948951 129.6850287 178.7493450
 209.0232658 128.1382563 180.7375970 209.0033866 126.7547500 179.6475358
 206.8937068 128.9879578 179.6315596 206.8706052 127.5903389 180.6438530
 206.8853425 126.0879625 178.5773618 206.8793881 127.5334737 177.5602644
 204.6582357 129.0266140 179.4704736 203.3233203 128.4436983 178.4742458
 204.5890002 129.1317926 176.4294638 206.0027742 129.5405952 177.4069588
 204.6589731 131.2575757 178.6291851 203.2585120 130.8682478 177.6256421
 204.5679548 131.4997877 175.5802164 205.9585354 131.8917619 176.5945471
 204.6160479 133.6411915 177.7645017 203.2137292 133.2477877 176.7752742
 204.5225892 133.8258654 174.7143420 205.9150986 134.2372493 175.7173350
 204.5727766 136.0267647 176.8487785 203.1770217 135.6113078 175.8493739
 205.8779208 136.6084951 174.7953196 204.3820697 137.5538999 174.9033585
 204.4818333 136.1808719 173.7873785 204.9500542 125.4899619 179.9561353
 203.4076585 126.3705741 179.7657896 204.3606181 128.2910562 181.0631875
 205.8958946 127.4297973 181.2152741 204.6577371 125.6370534 182.5070741
 203.1774861 126.5950040 182.3465076 204.3375385 128.5483520 183.4244737
 205.7965863 127.5744758 183.6041921 204.5456746 125.9778178 185.0748960
 203.0909449 126.9701222 184.8988867 204.3171845 128.9392743 185.8536315
 205.7674190 127.9518191 186.0291142 204.5367463 126.4161405 187.5771609
 203.0850939 127.4053802 187.4036289 205.7653060 128.3806533 188.5301465
 204.3169238 127.9872630 189.4742081 204.3007895 129.3694462 188.3635654
 204.8770187 126.6912503 176.4453470 203.3789227 126.4122412 177.3449758
 205.8557693 124.6279571 176.9492213 204.3300396 124.4219919 176.3368611
 204.9890450 124.0327473 179.3148266 204.7267210 122.8171249 178.1314306
 202.5415027 124.8784618 178.7999114 202.6848803 123.3096479 179.5764419
 202.5713367 122.1601193 177.4087990 202.5609557 123.6837440 176.5367341
 200.4082828 124.3260481 177.4753643 200.3294417 122.7969961 178.3677257
 200.6241578 121.5486438 176.1843392 200.6697045 123.0811868 175.3187974
 198.3108941 122.0791213 176.9805216 198.4301443 122.0450585 175.2085859
 198.3631053 123.6013538 176.0613582 212.8950000 119.8110000 170.8490000
 202.4800000 131.7750000 180.1460000 208.7478435 134.2782258 181.0848018
 207.2186208 134.2873423 181.0848476 206.6539748 132.8653454 181.0839514
 205.1257844 132.8719019 181.0833803 204.5542430 131.4720000 181.0830000
 203.2000000 131.4720000 181.0830000 205.2044269 130.4397992 181.0824242
 202.2930000 132.3760000 178.2880000 201.9219627 132.3756082 179.4214083
 201.9189482 131.7596945 181.0854991 209.1170424 133.7438952 181.9682020
 209.1177372 133.7429623 180.2032715 206.8552267 134.8269011 180.2024328
 206.8541634 134.8269044 181.9673625 207.0201151 132.3214740 181.9629224
 207.0200361 132.3229952 180.2027225 204.7585586 133.3903983 180.1911832
 204.7587875 133.3898719 181.9766810 202.8077631 132.3653881 181.0830000
 211.4260000 141.2130000  68.5660000 212.8757774 148.3142005  69.9921438
 211.3666515 148.2287848  69.9052115 210.8069757 147.3256163  70.9962000
 209.3082477 147.2700210  70.8293451 208.6891405 146.4032373  71.9023042
 207.1828159 146.5351808  71.8277451 206.5650844 145.7340000  70.6790000
 205.0190000 145.7340000  70.6790000 204.4116962 147.1607263  70.6790000
 204.9095752 148.0872788  69.5664628 204.3548467 149.5007891  69.7890727
 204.8623630 150.4642987  68.7210697 204.3104345 151.8754171  68.9418251
 204.8189850 152.8156350  67.8466482 204.2722930 154.2307717  68.0237523
 204.7848685 155.1481607  66.9258112 204.4955855 145.0841111  72.0260708
 204.8144433 145.9020878  73.2704143 204.2723105 145.2624234  74.5448002
 204.7003195 146.1263543  75.7249314 204.1840424 145.6050436  77.0595243
 204.6719724 146.5188103  78.1832741 204.1825094 146.0400682  79.5404483
 204.6703657 146.9510515  80.6543876 204.4641881 144.8633906  69.5126574
 204.8177005 143.3775280  69.4024780 204.4239989 142.4428091  70.5509994
 202.9159551 142.4581187  70.8059279 202.2414240 141.8082166  69.6154070
 200.7330011 141.8789084  69.6240254 200.2528935 141.1833068  68.3525470
 198.7448128 141.1800083  68.2604067 210.9640000 141.4810000  67.6110000
 210.8870455 141.1103397  67.6186543 210.8045611 140.7784972  69.3585043
 213.1709754 148.7156320  70.9678291 213.3111727 147.3122427  69.9024485
 211.0639720 147.8416836  68.9250912 210.9248237 149.2284455  70.0048742
 211.0702239 147.7188512  71.9832884 211.2354698 146.3167144  70.9169043
 209.0513187 146.8847845  69.8425598 208.8948951 148.2880287  70.9003450
 209.0232658 146.7412563  72.8885970 209.0033866 145.3577500  71.7985358
 206.8937068 147.5909578  71.7825596 206.8706052 146.1933389  72.7948530
 206.8853425 144.6909625  70.7283618 206.8793881 146.1364737  69.7112644
 204.6582357 147.6296140  71.6214736 203.3233203 147.0466983  70.6252458
 204.5890002 147.7347926  68.5804638 206.0027742 148.1435952  69.5579588
 204.6589731 149.8605757  70.7801851 203.2585120 149.4712478  69.7766421
 204.5679548 150.1027877  67.7312164 205.9585354 150.4947619  68.7455471
 204.6160479 152.2441915  69.9155017 203.2137292 151.8507877  68.9262742
 204.5225892 152.4288654  66.8653420 205.9150986 152.8402493  67.8683350
 204.5727766 154.6297647  68.9997785 203.1770217 154.2143078  68.0003739
 205.8779208 155.2114951  66.9463196 204.3820697 156.1568999  67.0543585
 204.4818333 154.7838719  65.9383785 204.9500542 144.0929619  72.1071353
 203.4076585 144.9735741  71.9167896 204.3606181 146.8940562  73.2141875
 205.8958946 146.0327973  73.3662741 204.6577371 144.2400534  74.6580741
 203.1774861 145.1980040  74.4975076 204.3375385 147.1513520  75.5754737
 205.7965863 146.1774758  75.7551921 204.5456746 144.5808178  77.2258960
 203.0909449 145.5731222  77.0498867 204.3171845 147.5422743  78.0046315
 205.7674190 146.5548191  78.1801142 204.5367463 145.0191405  79.7281609
 203.0850939 146.0083802  79.5546289 205.7653060 146.9836533  80.6811465
 204.3169238 146.5902630  81.6252081 204.3007895 147.9724462  80.5145654
 204.8770187 145.2942503  68.5963470 203.3789227 145.0152412  69.4959758
 205.8557693 143.2309571  69.1002213 204.3300396 143.0249919  68.4878611
 204.9890450 142.6357473  71.4658266 204.7267210 141.4201249  70.2824306
 202.5415027 143.4814618  70.9509114 202.6848803 141.9126479  71.7274419
 202.5713367 140.7631193  69.5597990 202.5609557 142.2867440  68.6877341
 200.4082828 142.9290481  69.6263643 200.3294417 141.3999961  70.5187257
 200.6241578 140.1516438  68.3353392 200.6697045 141.6841868  67.4697974
 198.3108941 140.6821213  69.1315216 198.4301443 140.6480585  67.3595859
 198.3631053 142.2043538  68.2123582 212.8950000 138.4140000  63.0000000
 202.4800000 150.3780000  72.2970000 208.7478435 152.8812258  73.2358018
 207.2186208 152.8903423  73.2358476 206.6539748 151.4683454  73.2349514
 205.1257844 151.4749019  73.2343803 204.5542430 150.0750000  73.2340000
 203.2000000 150.0750000  73.2340000 205.2044269 149.0427992  73.2334242
 202.2930000 150.9790000  70.4390000 201.9219627 150.9786082  71.5724083
 201.9189482 150.3626945  73.2364991 209.1170424 152.3468952  74.1192020
 209.1177372 152.3459623  72.3542715 206.8552267 153.4299011  72.3534328
 206.8541634 153.4299044  74.1183625 207.0201151 150.9244740  74.1139224
 207.0200361 150.9259952  72.3537225 204.7585586 151.9933983  72.3421832
 204.7587875 151.9928719  74.1276810 202.8077631 150.9683881  73.2340000
 211.4260000 141.2130000  86.5410000 212.8757774 148.3142005  87.9671438
 211.3666515 148.2287848  87.8802115 210.8069757 147.3256163  88.9712000
 209.3082477 147.2700210  88.8043451 208.6891405 146.4032373  89.8773042
 207.1828159 146.5351808  89.8027451 206.5650844 145.7340000  88.6540000
 205.0190000 145.7340000  88.6540000 204.4116962 147.1607263  88.6540000
 204.9095752 148.0872788  87.5414628 204.3548467 149.5007891  87.7640727
 204.8623630 150.4642987  86.6960697 204.3104345 151.8754171  86.9168251
 204.8189850 152.8156350  85.8216482 204.2722930 154.2307717  85.9987523
 204.7848685 155.1481607  84.9008112 204.4955855 145.0841111  90.0010708
 204.8144433 145.9020878  91.2454143 204.2723105 145.2624234  92.5198002
 204.7003195 146.1263543  93.6999314 204.1840424 145.6050436  95.0345243
 204.6719724 146.5188103  96.1582741 204.1825094 146.0400682  97.5154483
 204.6703657 146.9510515  98.6293876 204.4641881 144.8633906  87.4876574
 204.8177005 143.3775280  87.3774780 204.4239989 142.4428091  88.5259994
 202.9159551 142.4581187  88.7809279 202.2414240 141.8082166  87.5904070
 200.7330011 141.8789084  87.5990254 200.2528935 141.1833068  86.3275470
 198.7448128 141.1800083  86.2354067 210.9640000 141.4810000  85.5860000
 210.8870455 141.1103397  85.5936543 210.8045611 140.7784972  87.3335043
 213.1709754 148.7156320  88.9428291 213.3111727 147.3122427  87.8774485
 211.0639720 147.8416836  86.9000912 210.9248237 149.2284455  87.9798742
 211.0702239 147.7188512  89.9582884 211.2354698 146.3167144  88.8919043
 209.0513187 146.8847845  87.8175598 208.8948951 148.2880287  88.8753450
 209.0232658 146.7412563  90.8635970 209.0033866 145.3577500  89.7735358
 206.8937068 147.5909578  89.7575596 206.8706052 146.1933389  90.7698530
 206.8853425 144.6909625  88.7033618 206.8793881 146.1364737  87.6862644
 204.6582357 147.6296140  89.5964736 203.3233203 147.0466983  88.6002458
 204.5890002 147.7347926  86.5554638 206.0027742 148.1435952  87.5329588
 204.6589731 149.8605757  88.7551851 203.2585120 149.4712478  87.7516421
 204.5679548 150.1027877  85.7062164 205.9585354 150.4947619  86.7205471
 204.6160479 152.2441915  87.8905017 203.2137292 151.8507877  86.9012742
 204.5225892 152.4288654  84.8403420 205.9150986 152.8402493  85.8433350
 204.5727766 154.6297647  86.9747785 203.1770217 154.2143078  85.9753739
 205.8779208 155.2114951  84.9213196 204.3820697 156.1568999  85.0293585
 204.4818333 154.7838719  83.9133785 204.9500542 144.0929619  90.0821353
 203.4076585 144.9735741  89.8917896 204.3606181 146.8940562  91.1891875
 205.8958946 146.0327973  91.3412741 204.6577371 144.2400534  92.6330741
 203.1774861 145.1980040  92.4725076 204.3375385 147.1513520  93.5504737
 205.7965863 146.1774758  93.7301921 204.5456746 144.5808178  95.2008960
 203.0909449 145.5731222  95.0248867 204.3171845 147.5422743  95.9796315
 205.7674190 146.5548191  96.1551142 204.5367463 145.0191405  97.7031609
 203.0850939 146.0083802  97.5296289 205.7653060 146.9836533  98.6561465
 204.3169238 146.5902630  99.6002081 204.3007895 147.9724462  98.4895654
 204.8770187 145.2942503  86.5713470 203.3789227 145.0152412  87.4709758
 205.8557693 143.2309571  87.0752213 204.3300396 143.0249919  86.4628611
 204.9890450 142.6357473  89.4408266 204.7267210 141.4201249  88.2574306
 202.5415027 143.4814618  88.9259114 202.6848803 141.9126479  89.7024419
 202.5713367 140.7631193  87.5347990 202.5609557 142.2867440  86.6627341
 200.4082828 142.9290481  87.6013643 200.3294417 141.3999961  88.4937257
 200.6241578 140.1516438  86.3103392 200.6697045 141.6841868  85.4447974
 198.3108941 140.6821213  87.1065216 198.4301443 140.6480585  85.3345859
 198.3631053 142.2043538  86.1873582 212.8950000 138.4140000  80.9750000
 202.4800000 150.3780000  90.2720000 208.7478435 152.8812258  91.2108018
 207.2186208 152.8903423  91.2108476 206.6539748 151.4683454  91.2099514
 205.1257844 151.4749019  91.2093803 204.5542430 150.0750000  91.2090000
 203.2000000 150.0750000  91.2090000 205.2044269 149.0427992  91.2084242
 202.2930000 150.9790000  88.4140000 201.9219627 150.9786082  89.5474083
 201.9189482 150.3626945  91.2114991 209.1170424 152.3468952  92.0942020
 209.1177372 152.3459623  90.3292715 206.8552267 153.4299011  90.3284328
 206.8541634 153.4299044  92.0933625 207.0201151 150.9244740  92.0889224
 207.0200361 150.9259952  90.3287225 204.7585586 151.9933983  90.3171832
 204.7587875 151.9928719  92.1026810 202.8077631 150.9683881  91.2090000
 211.4260000 141.2130000 104.5160000 212.8757774 148.3142005 105.9421438
 211.3666515 148.2287848 105.8552115 210.8069757 147.3256163 106.9462000
 209.3082477 147.2700210 106.7793451 208.6891405 146.4032373 107.8523042
 207.1828159 146.5351808 107.7777451 206.5650844 145.7340000 106.6290000
 205.0190000 145.7340000 106.6290000 204.4116962 147.1607263 106.6290000
 204.9095752 148.0872788 105.5164628 204.3548467 149.5007891 105.7390727
 204.8623630 150.4642987 104.6710697 204.3104345 151.8754171 104.8918251
 204.8189850 152.8156350 103.7966482 204.2722930 154.2307717 103.9737523
 204.7848685 155.1481607 102.8758112 204.4955855 145.0841111 107.9760708
 204.8144433 145.9020878 109.2204143 204.2723105 145.2624234 110.4948002
 204.7003195 146.1263543 111.6749314 204.1840424 145.6050436 113.0095243
 204.6719724 146.5188103 114.1332741 204.1825094 146.0400682 115.4904483
 204.6703657 146.9510515 116.6043876 204.4641881 144.8633906 105.4626574
 204.8177005 143.3775280 105.3524780 204.4239989 142.4428091 106.5009994
 202.9159551 142.4581187 106.7559279 202.2414240 141.8082166 105.5654070
 200.7330011 141.8789084 105.5740254 200.2528935 141.1833068 104.3025470
 198.7448128 141.1800083 104.2104067 210.9640000 141.4810000 103.5610000
 210.8870455 141.1103397 103.5686543 210.8045611 140.7784972 105.3085043
 213.1709754 148.7156320 106.9178291 213.3111727 147.3122427 105.8524485
 211.0639720 147.8416836 104.8750912 210.9248237 149.2284455 105.9548742
 211.0702239 147.7188512 107.9332884 211.2354698 146.3167144 106.8669043
 209.0513187 146.8847845 105.7925598 208.8948951 148.2880287 106.8503450
 209.0232658 146.7412563 108.8385970 209.0033866 145.3577500 107.7485358
 206.8937068 147.5909578 107.7325596 206.8706052 146.1933389 108.7448530
 206.8853425 144.6909625 106.6783618 206.8793881 146.1364737 105.6612644
 204.6582357 147.6296140 107.5714736 203.3233203 147.0466983 106.5752458
 204.5890002 147.7347926 104.5304638 206.0027742 148.1435952 105.5079588
 204.6589731 149.8605757 106.7301851 203.2585120 149.4712478 105.7266421
 204.5679548 150.1027877 103.6812164 205.9585354 150.4947619 104.6955471
 204.6160479 152.2441915 105.8655017 203.2137292 151.8507877 104.8762742
 204.5225892 152.4288654 102.8153420 205.9150986 152.8402493 103.8183350
 204.5727766 154.6297647 104.9497785 203.1770217 154.2143078 103.9503739
 205.8779208 155.2114951 102.8963196 204.3820697 156.1568999 103.0043585
 204.4818333 154.7838719 101.8883785 204.9500542 144.0929619 108.0571353
 203.4076585 144.9735741 107.8667896 204.3606181 146.8940562 109.1641875
 205.8958946 146.0327973 109.3162741 204.6577371 144.2400534 110.6080741
 203.1774861 145.1980040 110.4475076 204.3375385 147.1513520 111.5254737
 205.7965863 146.1774758 111.7051921 204.5456746 144.5808178 113.1758960
 203.0909449 145.5731222 112.9998867 204.3171845 147.5422743 113.9546315
 205.7674190 146.5548191 114.1301142 204.5367463 145.0191405 115.6781609
 203.0850939 146.0083802 115.5046289 205.7653060 146.9836533 116.6311465
 204.3169238 146.5902630 117.5752081 204.3007895 147.9724462 116.4645654
 204.8770187 145.2942503 104.5463470 203.3789227 145.0152412 105.4459758
 205.8557693 143.2309571 105.0502213 204.3300396 143.0249919 104.4378611
 204.9890450 142.6357473 107.4158266 204.7267210 141.4201249 106.2324306
 202.5415027 143.4814618 106.9009114 202.6848803 141.9126479 107.6774419
 202.5713367 140.7631193 105.5097990 202.5609557 142.2867440 104.6377341
 200.4082828 142.9290481 105.5763643 200.3294417 141.3999961 106.4687257
 200.6241578 140.1516438 104.2853392 200.6697045 141.6841868 103.4197974
 198.3108941 140.6821213 105.0815216 198.4301443 140.6480585 103.3095859
 198.3631053 142.2043538 104.1623582 212.8950000 138.4140000  98.9500000
 202.4800000 150.3780000 108.2470000 208.7478435 152.8812258 109.1858018
 207.2186208 152.8903423 109.1858476 206.6539748 151.4683454 109.1849514
 205.1257844 151.4749019 109.1843803 204.5542430 150.0750000 109.1840000
 203.2000000 150.0750000 109.1840000 205.2044269 149.0427992 109.1834242
 202.2930000 150.9790000 106.3890000 201.9219627 150.9786082 107.5224083
 201.9189482 150.3626945 109.1864991 209.1170424 152.3468952 110.0692020
 209.1177372 152.3459623 108.3042715 206.8552267 153.4299011 108.3034328
 206.8541634 153.4299044 110.0683625 207.0201151 150.9244740 110.0639224
 207.0200361 150.9259952 108.3037225 204.7585586 151.9933983 108.2921832
 204.7587875 151.9928719 110.0776810 202.8077631 150.9683881 109.1840000
 211.4260000 141.2130000 122.4900000 212.8757774 148.3142005 123.9161438
 211.3666515 148.2287848 123.8292115 210.8069757 147.3256163 124.9202000
 209.3082477 147.2700210 124.7533451 208.6891405 146.4032373 125.8263042
 207.1828159 146.5351808 125.7517451 206.5650844 145.7340000 124.6030000
 205.0190000 145.7340000 124.6030000 204.4116962 147.1607263 124.6030000
 204.9095752 148.0872788 123.4904628 204.3548467 149.5007891 123.7130727
 204.8623630 150.4642987 122.6450697 204.3104345 151.8754171 122.8658251
 204.8189850 152.8156350 121.7706482 204.2722930 154.2307717 121.9477523
 204.7848685 155.1481607 120.8498112 204.4955855 145.0841111 125.9500708
 204.8144433 145.9020878 127.1944143 204.2723105 145.2624234 128.4688002
 204.7003195 146.1263543 129.6489314 204.1840424 145.6050436 130.9835243
 204.6719724 146.5188103 132.1072741 204.1825094 146.0400682 133.4644483
 204.6703657 146.9510515 134.5783876 204.4641881 144.8633906 123.4366574
 204.8177005 143.3775280 123.3264780 204.4239989 142.4428091 124.4749994
 202.9159551 142.4581187 124.7299279 202.2414240 141.8082166 123.5394070
 200.7330011 141.8789084 123.5480254 200.2528935 141.1833068 122.2765470
 198.7448128 141.1800083 122.1844067 210.9640000 141.4810000 121.5350000
 210.8870455 141.1103397 121.5426543 210.8045611 140.7784972 123.2825043
 213.1709754 148.7156320 124.8918291 213.3111727 147.3122427 123.8264485
 211.0639720 147.8416836 122.8490912 210.9248237 149.2284455 123.9288742
 211.0702239 147.7188512 125.9072884 211.2354698 146.3167144 124.8409043
 209.0513187 146.8847845 123.7665598 208.8948951 148.2880287 124.8243450
 209.0232658 146.7412563 126.8125970 209.0033866 145.3577500 125.7225358
 206.8937068 147.5909578 125.7065596 206.8706052 146.1933389 126.7188530
 206.8853425 144.6909625 124.6523618 206.8793881 146.1364737 123.6352644
 204.6582357 147.6296140 125.5454736 203.3233203 147.0466983 124.5492458
 204.5890002 147.7347926 122.5044638 206.0027742 148.1435952 123.4819588
 204.6589731 149.8605757 124.7041851 203.2585120 149.4712478 123.7006421
 204.5679548 150.1027877 121.6552164 205.9585354 150.4947619 122.6695471
 204.6160479 152.2441915 123.8395017 203.2137292 151.8507877 122.8502742
 204.5225892 152.4288654 120.7893420 205.9150986 152.8402493 121.7923350
 204.5727766 154.6297647 122.9237785 203.1770217 154.2143078 121.9243739
 205.8779208 155.2114951 120.8703196 204.3820697 156.1568999 120.9783585
 204.4818333 154.7838719 119.8623785 204.9500542 144.0929619 126.0311353
 203.4076585 144.9735741 125.8407896 204.3606181 146.8940562 127.1381875
 205.8958946 146.0327973 127.2902741 204.6577371 144.2400534 128.5820741
 203.1774861 145.1980040 128.4215076 204.3375385 147.1513520 129.4994737
 205.7965863 146.1774758 129.6791921 204.5456746 144.5808178 131.1498960
 203.0909449 145.5731222 130.9738867 204.3171845 147.5422743 131.9286315
 205.7674190 146.5548191 132.1041142 204.5367463 145.0191405 133.6521609
 203.0850939 146.0083802 133.4786289 205.7653060 146.9836533 134.6051465
 204.3169238 146.5902630 135.5492081 204.3007895 147.9724462 134.4385654
 204.8770187 145.2942503 122.5203470 203.3789227 145.0152412 123.4199758
 205.8557693 143.2309571 123.0242213 204.3300396 143.0249919 122.4118611
 204.9890450 142.6357473 125.3898266 204.7267210 141.4201249 124.2064306
 202.5415027 143.4814618 124.8749114 202.6848803 141.9126479 125.6514419
 202.5713367 140.7631193 123.4837990 202.5609557 142.2867440 122.6117341
 200.4082828 142.9290481 123.5503643 200.3294417 141.3999961 124.4427257
 200.6241578 140.1516438 122.2593392 200.6697045 141.6841868 121.3937974
 198.3108941 140.6821213 123.0555216 198.4301443 140.6480585 121.2835859
 198.3631053 142.2043538 122.1363582 212.8950000 138.4140000 116.9240000
 202.4800000 150.3780000 126.2210000 208.7478435 152.8812258 127.1598018
 207.2186208 152.8903423 127.1598476 206.6539748 151.4683454 127.1589514
 205.1257844 151.4749019 127.1583803 204.5542430 150.0750000 127.1580000
 203.2000000 150.0750000 127.1580000 205.2044269 149.0427992 127.1574242
 202.2930000 150.9790000 124.3630000 201.9219627 150.9786082 125.4964083
 201.9189482 150.3626945 127.1604991 209.1170424 152.3468952 128.0432020
 209.1177372 152.3459623 126.2782715 206.8552267 153.4299011 126.2774328
 206.8541634 153.4299044 128.0423625 207.0201151 150.9244740 128.0379224
 207.0200361 150.9259952 126.2777225 204.7585586 151.9933983 126.2661832
 204.7587875 151.9928719 128.0516810 202.8077631 150.9683881 127.1580000
 211.4260000 141.2130000 140.4650000 212.8757774 148.3142005 141.8911438
 211.3666515 148.2287848 141.8042115 210.8069757 147.3256163 142.8952000
 209.3082477 147.2700210 142.7283451 208.6891405 146.4032373 143.8013042
 207.1828159 146.5351808 143.7267451 206.5650844 145.7340000 142.5780000
 205.0190000 145.7340000 142.5780000 204.4116962 147.1607263 142.5780000
 204.9095752 148.0872788 141.4654628 204.3548467 149.5007891 141.6880727
 204.8623630 150.4642987 140.6200697 204.3104345 151.8754171 140.8408251
 204.8189850 152.8156350 139.7456482 204.2722930 154.2307717 139.9227523
 204.7848685 155.1481607 138.8248112 204.4955855 145.0841111 143.9250708
 204.8144433 145.9020878 145.1694143 204.2723105 145.2624234 146.4438002
 204.7003195 146.1263543 147.6239314 204.1840424 145.6050436 148.9585243
 204.6719724 146.5188103 150.0822741 204.1825094 146.0400682 151.4394483
 204.6703657 146.9510515 152.5533876 204.4641881 144.8633906 141.4116574
 204.8177005 143.3775280 141.3014780 204.4239989 142.4428091 142.4499994
 202.9159551 142.4581187 142.7049279 202.2414240 141.8082166 141.5144070
 200.7330011 141.8789084 141.5230254 200.2528935 141.1833068 140.2515470
 198.7448128 141.1800083 140.1594067 210.9640000 141.4810000 139.5100000
 210.8870455 141.1103397 139.5176543 210.8045611 140.7784972 141.2575043
 213.1709754 148.7156320 142.8668291 213.3111727 147.3122427 141.8014485
 211.0639720 147.8416836 140.8240912 210.9248237 149.2284455 141.9038742
 211.0702239 147.7188512 143.8822884 211.2354698 146.3167144 142.8159043
 209.0513187 146.8847845 141.7415598 208.8948951 148.2880287 142.7993450
 209.0232658 146.7412563 144.7875970 209.0033866 145.3577500 143.6975358
 206.8937068 147.5909578 143.6815596 206.8706052 146.1933389 144.6938530
 206.8853425 144.6909625 142.6273618 206.8793881 146.1364737 141.6102644
 204.6582357 147.6296140 143.5204736 203.3233203 147.0466983 142.5242458
 204.5890002 147.7347926 140.4794638 206.0027742 148.1435952 141.4569588
 204.6589731 149.8605757 142.6791851 203.2585120 149.4712478 141.6756421
 204.5679548 150.1027877 139.6302164 205.9585354 150.4947619 140.6445471
 204.6160479 152.2441915 141.8145017 203.2137292 151.8507877 140.8252742
 204.5225892 152.4288654 138.7643420 205.9150986 152.8402493 139.7673350
 204.5727766 154.6297647 140.8987785 203.1770217 154.2143078 139.8993739
 205.8779208 155.2114951 138.8453196 204.3820697 156.1568999 138.9533585
 204.4818333 154.7838719 137.8373785 204.9500542 144.0929619 144.0061353
 203.4076585 144.9735741 143.8157896 204.3606181 146.8940562 145.1131875
 205.8958946 146.0327973 145.2652741 204.6577371 144.2400534 146.5570741
 203.1774861 145.1980040 146.3965076 204.3375385 147.1513520 147.4744737
 205.7965863 146.1774758 147.6541921 204.5456746 144.5808178 149.1248960
 203.0909449 145.5731222 148.9488867 204.3171845 147.5422743 149.9036315
 205.7674190 146.5548191 150.0791142 204.5367463 145.0191405 151.6271609
 203.0850939 146.0083802 151.4536289 205.7653060 146.9836533 152.5801465
 204.3169238 146.5902630 153.5242081 204.3007895 147.9724462 152.4135654
 204.8770187 145.2942503 140.4953470 203.3789227 145.0152412 141.3949758
 205.8557693 143.2309571 140.9992213 204.3300396 143.0249919 140.3868611
 204.9890450 142.6357473 143.3648266 204.7267210 141.4201249 142.1814306
 202.5415027 143.4814618 142.8499114 202.6848803 141.9126479 143.6264419
 202.5713367 140.7631193 141.4587990 202.5609557 142.2867440 140.5867341
 200.4082828 142.9290481 141.5253643 200.3294417 141.3999961 142.4177257
 200.6241578 140.1516438 140.2343392 200.6697045 141.6841868 139.3687974
 198.3108941 140.6821213 141.0305216 198.4301443 140.6480585 139.2585859
 198.3631053 142.2043538 140.1113582 212.8950000 138.4140000 134.8990000
 202.4800000 150.3780000 144.1960000 208.7478435 152.8812258 145.1348018
 207.2186208 152.8903423 145.1348476 206.6539748 151.4683454 145.1339514
 205.1257844 151.4749019 145.1333803 204.5542430 150.0750000 145.1330000
 203.2000000 150.0750000 145.1330000 205.2044269 149.0427992 145.1324242
 202.2930000 150.9790000 142.3380000 201.9219627 150.9786082 143.4714083
 201.9189482 150.3626945 145.1354991 209.1170424 152.3468952 146.0182020
 209.1177372 152.3459623 144.2532715 206.8552267 153.4299011 144.2524328
 206.8541634 153.4299044 146.0173625 207.0201151 150.9244740 146.0129224
 207.0200361 150.9259952 144.2527225 204.7585586 151.9933983 144.2411832
 204.7587875 151.9928719 146.0266810 202.8077631 150.9683881 145.1330000
 211.4260000 141.2130000 158.4400000 212.8757774 148.3142005 159.8661438
 211.3666515 148.2287848 159.7792115 210.8069757 147.3256163 160.8702000
 209.3082477 147.2700210 160.7033451 208.6891405 146.4032373 161.7763042
 207.1828159 146.5351808 161.7017451 206.5650844 145.7340000 160.5530000
 205.0190000 145.7340000 160.5530000 204.4116962 147.1607263 160.5530000
 204.9095752 148.0872788 159.4404628 204.3548467 149.5007891 159.6630727
 204.8623630 150.4642987 158.5950697 204.3104345 151.8754171 158.8158251
 204.8189850 152.8156350 157.7206482 204.2722930 154.2307717 157.8977523
 204.7848685 155.1481607 156.7998112 204.4955855 145.0841111 161.9000708
 204.8144433 145.9020878 163.1444143 204.2723105 145.2624234 164.4188002
 204.7003195 146.1263543 165.5989314 204.1840424 145.6050436 166.9335243
 204.6719724 146.5188103 168.0572741 204.1825094 146.0400682 169.4144483
 204.6703657 146.9510515 170.5283876 204.4641881 144.8633906 159.3866574
 204.8177005 143.3775280 159.2764780 204.4239989 142.4428091 160.4249994
 202.9159551 142.4581187 160.6799279 202.2414240 141.8082166 159.4894070
 200.7330011 141.8789084 159.4980254 200.2528935 141.1833068 158.2265470
 198.7448128 141.1800083 158.1344067 210.9640000 141.4810000 157.4850000
 210.8870455 141.1103397 157.4926543 210.8045611 140.7784972 159.2325043
 213.1709754 148.7156320 160.8418291 213.3111727 147.3122427 159.7764485
 211.0639720 147.8416836 158.7990912 210.9248237 149.2284455 159.8788742
 211.0702239 147.7188512 161.8572884 211.2354698 146.3167144 160.7909043
 209.0513187 146.8847845 159.7165598 208.8948951 148.2880287 160.7743450
 209.0232658 146.7412563 162.7625970 209.0033866 145.3577500 161.6725358
 206.8937068 147.5909578 161.6565596 206.8706052 146.1933389 162.6688530
 206.8853425 144.6909625 160.6023618 206.8793881 146.1364737 159.5852644
 204.6582357 147.6296140 161.4954736 203.3233203 147.0466983 160.4992458
 204.5890002 147.7347926 158.4544638 206.0027742 148.1435952 159.4319588
 204.6589731 149.8605757 160.6541851 203.2585120 149.4712478 159.6506421
 204.5679548 150.1027877 157.6052164 205.9585354 150.4947619 158.6195471
 204.6160479 152.2441915 159.7895017 203.2137292 151.8507877 158.8002742
 204.5225892 152.4288654 156.7393420 205.9150986 152.8402493 157.7423350
 204.5727766 154.6297647 158.8737785 203.1770217 154.2143078 157.8743739
 205.8779208 155.2114951 156.8203196 204.3820697 156.1568999 156.9283585
 204.4818333 154.7838719 155.8123785 204.9500542 144.0929619 161.9811353
 203.4076585 144.9735741 161.7907896 204.3606181 146.8940562 163.0881875
 205.8958946 146.0327973 163.2402741 204.6577371 144.2400534 164.5320741
 203.1774861 145.1980040 164.3715076 204.3375385 147.1513520 165.4494737
 205.7965863 146.1774758 165.6291921 204.5456746 144.5808178 167.0998960
 203.0909449 145.5731222 166.9238867 204.3171845 147.5422743 167.8786315
 205.7674190 146.5548191 168.0541142 204.5367463 145.0191405 169.6021609
 203.0850939 146.0083802 169.4286289 205.7653060 146.9836533 170.5551465
 204.3169238 146.5902630 171.4992081 204.3007895 147.9724462 170.3885654
 204.8770187 145.2942503 158.4703470 203.3789227 145.0152412 159.3699758
 205.8557693 143.2309571 158.9742213 204.3300396 143.0249919 158.3618611
 204.9890450 142.6357473 161.3398266 204.7267210 141.4201249 160.1564306
 202.5415027 143.4814618 160.8249114 202.6848803 141.9126479 161.6014419
 202.5713367 140.7631193 159.4337990 202.5609557 142.2867440 158.5617341
 200.4082828 142.9290481 159.5003643 200.3294417 141.3999961 160.3927257
 200.6241578 140.1516438 158.2093392 200.6697045 141.6841868 157.3437974
 198.3108941 140.6821213 159.0055216 198.4301443 140.6480585 157.2335859
 198.3631053 142.2043538 158.0863582 212.8950000 138.4140000 152.8740000
 202.4800000 150.3780000 162.1710000 208.7478435 152.8812258 163.1098018
 207.2186208 152.8903423 163.1098476 206.6539748 151.4683454 163.1089514
 205.1257844 151.4749019 163.1083803 204.5542430 150.0750000 163.1080000
 203.2000000 150.0750000 163.1080000 205.2044269 149.0427992 163.1074242
 202.2930000 150.9790000 160.3130000 201.9219627 150.9786082 161.4464083
 201.9189482 150.3626945 163.1104991 209.1170424 152.3468952 163.9932020
 209.1177372 152.3459623 162.2282715 206.8552267 153.4299011 162.2274328
 206.8541634 153.4299044 163.9923625 207.0201151 150.9244740 163.9879224
 207.0200361 150.9259952 162.2277225 204.7585586 151.9933983 162.2161832
 204.7587875 151.9928719 164.0016810 202.8077631 150.9683881 163.1080000
 211.4260000 141.2130000 176.4150000 212.8757774 148.3142005 177.8411438
 211.3666515 148.2287848 177.7542115 210.8069757 147.3256163 178.8452000
 209.3082477 147.2700210 178.6783451 208.6891405 146.4032373 179.7513042
 207.1828159 146.5351808 179.6767451 206.5650844 145.7340000 178.5280000
 205.0190000 145.7340000 178.5280000 204.4116962 147.1607263 178.5280000
 204.9095752 148.0872788 177.4154628 204.3548467 149.5007891 177.6380727
 204.8623630 150.4642987 176.5700697 204.3104345 151.8754171 176.7908251
 204.8189850 152.8156350 175.6956482 204.2722930 154.2307717 175.8727523
 204.7848685 155.1481607 174.7748112 204.4955855 145.0841111 179.8750708
 204.8144433 145.9020878 181.1194143 204.2723105 145.2624234 182.3938002
 204.7003195 146.1263543 183.5739314 204.1840424 145.6050436 184.9085243
 204.6719724 146.5188103 186.0322741 204.1825094 146.0400682 187.3894483
 204.6703657 146.9510515 188.5033876 204.4641881 144.8633906 177.3616574
 204.8177005 143.3775280 177.2514780 204.4239989 142.4428091 178.3999994
 202.9159551 142.4581187 178.6549279 202.2414240 141.8082166 177.4644070
 200.7330011 141.8789084 177.4730254 200.2528935 141.1833068 176.2015470
 198.7448128 141.1800083 176.1094067 210.9640000 141.4810000 175.4600000
 210.8870455 141.1103397 175.4676543 210.8045611 140.7784972 177.2075043
 213.1709754 148.7156320 178.8168291 213.3111727 147.3122427 177.7514485
 211.0639720 147.8416836 176.7740912 210.9248237 149.2284455 177.8538742
 211.0702239 147.7188512 179.8322884 211.2354698 146.3167144 178.7659043
 209.0513187 146.8847845 177.6915598 208.8948951 148.2880287 178.7493450
 209.0232658 146.7412563 180.7375970 209.0033866 145.3577500 179.6475358
 206.8937068 147.5909578 179.6315596 206.8706052 146.1933389 180.6438530
 206.8853425 144.6909625 178.5773618 206.8793881 146.1364737 177.5602644
 204.6582357 147.6296140 179.4704736 203.3233203 147.0466983 178.4742458
 204.5890002 147.7347926 176.4294638 206.0027742 148.1435952 177.4069588
 204.6589731 149.8605757 178.6291851 203.2585120 149.4712478 177.6256421
 204.5679548 150.1027877 175.5802164 205.9585354 150.4947619 176.5945471
 204.6160479 152.2441915 177.7645017 203.2137292 151.8507877 176.7752742
 204.5225892 152.4288654 174.7143420 205.9150986 152.8402493 175.7173350
 204.5727766 154.6297647 176.8487785 203.1770217 154.2143078 175.8493739
 205.8779208 155.2114951 174.7953196 204.3820697 156.1568999 174.9033585
 204.4818333 154.7838719 173.7873785 204.9500542 144.0929619 179.9561353
 203.4076585 144.9735741 179.7657896 204.3606181 146.8940562 181.0631875
 205.8958946 146.0327973 181.2152741 204.6577371 144.2400534 182.5070741
 203.1774861 145.1980040 182.3465076 204.3375385 147.1513520 183.4244737
 205.7965863 146.1774758 183.6041921 204.5456746 144.5808178 185.0748960
 203.0909449 145.5731222 184.8988867 204.3171845 147.5422743 185.8536315
 205.7674190 146.5548191 186.0291142 204.5367463 145.0191405 187.5771609
 203.0850939 146.0083802 187.4036289 205.7653060 146.9836533 188.5301465
 204.3169238 146.5902630 189.4742081 204.3007895 147.9724462 188.3635654
 204.8770187 145.2942503 176.4453470 203.3789227 145.0152412 177.3449758
 205.8557693 143.2309571 176.9492213 204.3300396 143.0249919 176.3368611
 204.9890450 142.6357473 179.3148266 204.7267210 141.4201249 178.1314306
 202.5415027 143.4814618 178.7999114 202.6848803 141.9126479 179.5764419
 202.5713367 140.7631193 177.4087990 202.5609557 142.2867440 176.5367341
 200.4082828 142.9290481 177.4753643 200.3294417 141.3999961 178.3677257
 200.6241578 140.1516438 176.1843392 200.6697045 141.6841868 175.3187974
 198.3108941 140.6821213 176.9805216 198.4301443 140.6480585 175.2085859
 198.3631053 142.2043538 176.0613582 212.8950000 138.4140000 170.8490000
 202.4800000 150.3780000 180.1460000 208.7478435 152.8812258 181.0848018
 207.2186208 152.8903423 181.0848476 206.6539748 151.4683454 181.0839514
 205.1257844 151.4749019 181.0833803 204.5542430 150.0750000 181.0830000
 203.2000000 150.0750000 181.0830000 205.2044269 149.0427992 181.0824242
 202.2930000 150.9790000 178.2880000 201.9219627 150.9786082 179.4214083
 201.9189482 150.3626945 181.0854991 209.1170424 152.3468952 181.9682020
 209.1177372 152.3459623 180.2032715 206.8552267 153.4299011 180.2024328
 206.8541634 153.4299044 181.9673625 207.0201151 150.9244740 181.9629224
 207.0200361 150.9259952 180.2027225 204.7585586 151.9933983 180.1911832
 204.7587875 151.9928719 181.9766810 202.8077631 150.9683881 181.0830000
 211.4260000 159.8170000  68.5660000 212.8757774 166.9182005  69.9921438
 211.3666515 166.8327848  69.9052115 210.8069757 165.9296163  70.9962000
 209.3082477 165.8740210  70.8293451 208.6891405 165.0072373  71.9023042
 207.1828159 165.1391808  71.8277451 206.5650844 164.3380000  70.6790000
 205.0190000 164.3380000  70.6790000 204.4116962 165.7647263  70.6790000
 204.9095752 166.6912788  69.5664628 204.3548467 168.1047891  69.7890727
 204.8623630 169.0682987  68.7210697 204.3104345 170.4794171  68.9418251
 204.8189850 171.4196350  67.8466482 204.2722930 172.8347717  68.0237523
 204.7848685 173.7521607  66.9258112 204.4955855 163.6881111  72.0260708
 204.8144433 164.5060878  73.2704143 204.2723105 163.8664234  74.5448002
 204.7003195 164.7303543  75.7249314 204.1840424 164.2090436  77.0595243
 204.6719724 165.1228103  78.1832741 204.1825094 164.6440682  79.5404483
 204.6703657 165.5550515  80.6543876 204.4641881 163.4673906  69.5126574
 204.8177005 161.9815280  69.4024780 204.4239989 161.0468091  70.5509994
 202.9159551 161.0621187  70.8059279 202.2414240 160.4122166  69.6154070
 200.7330011 160.4829084  69.6240254 200.2528935 159.7873068  68.3525470
 198.7448128 159.7840083  68.2604067 210.9640000 160.0850000  67.6110000
 210.8870455 159.7143397  67.6186543 210.8045611 159.3824972  69.3585043
 213.1709754 167.3196320  70.9678291 213.3111727 165.9162427  69.9024485
 211.0639720 166.4456836  68.9250912 210.9248237 167.8324455  70.0048742
 211.0702239 166.3228512  71.9832884 211.2354698 164.9207144  70.9169043
 209.0513187 165.4887845  69.8425598 208.8948951 166.8920287  70.9003450
 209.0232658 165.3452563  72.8885970 209.0033866 163.9617500  71.7985358
 206.8937068 166.1949578  71.7825596 206.8706052 164.7973389  72.7948530
 206.8853425 163.2949625  70.7283618 206.8793881 164.7404737  69.7112644
 204.6582357 166.2336140  71.6214736 203.3233203 165.6506983  70.6252458
 204.5890002 166.3387926  68.5804638 206.0027742 166.7475952  69.5579588
 204.6589731 168.4645757  70.7801851 203.2585120 168.0752478  69.7766421
 204.5679548 168.7067877  67.7312164 205.9585354 169.0987619  68.7455471
 204.6160479 170.8481915  69.9155017 203.2137292 170.4547877  68.9262742
 204.5225892 171.0328654  66.8653420 205.9150986 171.4442493  67.8683350
 204.5727766 173.2337647  68.9997785 203.1770217 172.8183078  68.0003739
 205.8779208 173.8154951  66.9463196 204.3820697 174.7608999  67.0543585
 204.4818333 173.3878719  65.9383785 204.9500542 162.6969619  72.1071353
 203.4076585 163.5775741  71.9167896 204.3606181 165.4980562  73.2141875
 205.8958946 164.6367973  73.3662741 204.6577371 162.8440534  74.6580741
 203.1774861 163.8020040  74.4975076 204.3375385 165.7553520  75.5754737
 205.7965863 164.7814758  75.7551921 204.5456746 163.1848178  77.2258960
 203.0909449 164.1771222  77.0498867 204.3171845 166.1462743  78.0046315
 205.7674190 165.1588191  78.1801142 204.5367463 163.6231405  79.7281609
 203.0850939 164.6123802  79.5546289 205.7653060 165.5876533  80.6811465
 204.3169238 165.1942630  81.6252081 204.3007895 166.5764462  80.5145654
 204.8770187 163.8982503  68.5963470 203.3789227 163.6192412  69.4959758
 205.8557693 161.8349571  69.1002213 204.3300396 161.6289919  68.4878611
 204.9890450 161.2397473  71.4658266 204.7267210 160.0241249  70.2824306
 202.5415027 162.0854618  70.9509114 202.6848803 160.5166479  71.7274419
 202.5713367 159.3671193  69.5597990 202.5609557 160.8907440  68.6877341
 200.4082828 161.5330481  69.6263643 200.3294417 160.0039961  70.5187257
 200.6241578 158.7556438  68.3353392 200.6697045 160.2881868  67.4697974
 198.3108941 159.2861213  69.1315216 198.4301443 159.2520585  67.3595859
 198.3631053 160.8083538  68.2123582 212.8950000 157.0180000  63.0000000
 202.4800000 168.9820000  72.2970000 208.7478435 171.4852258  73.2358018
 207.2186208 171.4943423  73.2358476 206.6539748 170.0723454  73.2349514
 205.1257844 170.0789019  73.2343803 204.5542430 168.6790000  73.2340000
 203.2000000 168.6790000  73.2340000 205.2044269 167.6467992  73.2334242
 202.2930000 169.5830000  70.4390000 201.9219627 169.5826082  71.5724083
 201.9189482 168.9666945  73.2364991 209.1170424 170.9508952  74.1192020
 209.1177372 170.9499623  72.3542715 206.8552267 172.0339011  72.3534328
 206.8541634 172.0339044  74.1183625 207.0201151 169.5284740  74.1139224
 207.0200361 169.5299952  72.3537225 204.7585586 170.5973983  72.3421832
 204.7587875 170.5968719  74.1276810 202.8077631 169.5723881  73.2340000
 211.4260000 159.8170000  86.5410000 212.8757774 166.9182005  87.9671438
 211.3666515 166.8327848  87.8802115 210.8069757 165.9296163  88.9712000
 209.3082477 165.8740210  88.8043451 208.6891405 165.0072373  89.8773042
 207.1828159 165.1391808  89.8027451 206.5650844 164.3380000  88.6540000
 205.0190000 164.3380000  88.6540000 204.4116962 165.7647263  88.6540000
 204.9095752 166.6912788  87.5414628 204.3548467 168.1047891  87.7640727
 204.8623630 169.0682987  86.6960697 204.3104345 170.4794171  86.9168251
 204.8189850 171.4196350  85.8216482 204.2722930 172.8347717  85.9987523
 204.7848685 173.7521607  84.9008112 204.4955855 163.6881111  90.0010708
 204.8144433 164.5060878  91.2454143 204.2723105 163.8664234  92.5198002
 204.7003195 164.7303543  93.6999314 204.1840424 164.2090436  95.0345243
 204.6719724 165.1228103  96.1582741 204.1825094 164.6440682  97.5154483
 204.6703657 165.5550515  98.6293876 204.4641881 163.4673906  87.4876574
 204.8177005 161.9815280  87.3774780 204.4239989 161.0468091  88.5259994
 202.9159551 161.0621187  88.7809279 202.2414240 160.4122166  87.5904070
 200.7330011 160.4829084  87.5990254 200.2528935 159.7873068  86.3275470
 198.7448128 159.7840083  86.2354067 210.9640000 160.0850000  85.5860000
 210.8870455 159.7143397  85.5936543 210.8045611 159.3824972  87.3335043
 213.1709754 167.3196320  88.9428291 213.3111727 165.9162427  87.8774485
 211.0639720 166.4456836  86.9000912 210.9248237 167.8324455  87.9798742
 211.0702239 166.3228512  89.9582884 211.2354698 164.9207144  88.8919043
 209.0513187 165.4887845  87.8175598 208.8948951 166.8920287  88.8753450
 209.0232658 165.3452563  90.8635970 209.0033866 163.9617500  89.7735358
 206.8937068 166.1949578  89.7575596 206.8706052 164.7973389  90.7698530
 206.8853425 163.2949625  88.7033618 206.8793881 164.7404737  87.6862644
 204.6582357 166.2336140  89.5964736 203.3233203 165.6506983  88.6002458
 204.5890002 166.3387926  86.5554638 206.0027742 166.7475952  87.5329588
 204.6589731 168.4645757  88.7551851 203.2585120 168.0752478  87.7516421
 204.5679548 168.7067877  85.7062164 205.9585354 169.0987619  86.7205471
 204.6160479 170.8481915  87.8905017 203.2137292 170.4547877  86.9012742
 204.5225892 171.0328654  84.8403420 205.9150986 171.4442493  85.8433350
 204.5727766 173.2337647  86.9747785 203.1770217 172.8183078  85.9753739
 205.8779208 173.8154951  84.9213196 204.3820697 174.7608999  85.0293585
 204.4818333 173.3878719  83.9133785 204.9500542 162.6969619  90.0821353
 203.4076585 163.5775741  89.8917896 204.3606181 165.4980562  91.1891875
 205.8958946 164.6367973  91.3412741 204.6577371 162.8440534  92.6330741
 203.1774861 163.8020040  92.4725076 204.3375385 165.7553520  93.5504737
 205.7965863 164.7814758  93.7301921 204.5456746 163.1848178  95.2008960
 203.0909449 164.1771222  95.0248867 204.3171845 166.1462743  95.9796315
 205.7674190 165.1588191  96.1551142 204.5367463 163.6231405  97.7031609
 203.0850939 164.6123802  97.5296289 205.7653060 165.5876533  98.6561465
 204.3169238 165.1942630  99.6002081 204.3007895 166.5764462  98.4895654
 204.8770187 163.8982503  86.5713470 203.3789227 163.6192412  87.4709758
 205.8557693 161.8349571  87.0752213 204.3300396 161.6289919  86.4628611
 204.9890450 161.2397473  89.4408266 204.7267210 160.0241249  88.2574306
 202.5415027 162.0854618  88.9259114 202.6848803 160.5166479  89.7024419
 202.5713367 159.3671193  87.5347990 202.5609557 160.8907440  86.6627341
 200.4082828 161.5330481  87.6013643 200.3294417 160.0039961  88.4937257
 200.6241578 158.7556438  86.3103392 200.6697045 160.2881868  85.4447974
 198.3108941 159.2861213  87.1065216 198.4301443 159.2520585  85.3345859
 198.3631053 160.8083538  86.1873582 212.8950000 157.0180000  80.9750000
 202.4800000 168.9820000  90.2720000 208.7478435 171.4852258  91.2108018
 207.2186208 171.4943423  91.2108476 206.6539748 170.0723454  91.2099514
 205.1257844 170.0789019  91.2093803 204.5542430 168.6790000  91.2090000
 203.2000000 168.6790000  91.2090000 205.2044269 167.6467992  91.2084242
 202.2930000 169.5830000  88.4140000 201.9219627 169.5826082  89.5474083
 201.9189482 168.9666945  91.2114991 209.1170424 170.9508952  92.0942020
 209.1177372 170.9499623  90.3292715 206.8552267 172.0339011  90.3284328
 206.8541634 172.0339044  92.0933625 207.0201151 169.5284740  92.0889224
 207.0200361 169.5299952  90.3287225 204.7585586 170.5973983  90.3171832
 204.7587875 170.5968719  92.1026810 202.8077631 169.5723881  91.2090000
 211.4260000 159.8170000 104.5160000 212.8757774 166.9182005 105.9421438
 211.3666515 166.8327848 105.8552115 210.8069757 165.9296163 106.9462000
 209.3082477 165.8740210 106.7793451 208.6891405 165.0072373 107.8523042
 207.1828159 165.1391808 107.7777451 206.5650844 164.3380000 106.6290000
 205.0190000 164.3380000 106.6290000 204.4116962 165.7647263 106.6290000
 204.9095752 166.6912788 105.5164628 204.3548467 168.1047891 105.7390727
 204.8623630 169.0682987 104.6710697 204.3104345 170.4794171 104.8918251
 204.8189850 171.4196350 103.7966482 204.2722930 172.8347717 103.9737523
 204.7848685 173.7521607 102.8758112 204.4955855 163.6881111 107.9760708
 204.8144433 164.5060878 109.2204143 204.2723105 163.8664234 110.4948002
 204.7003195 164.7303543 111.6749314 204.1840424 164.2090436 113.0095243
 204.6719724 165.1228103 114.1332741 204.1825094 164.6440682 115.4904483
 204.6703657 165.5550515 116.6043876 204.4641881 163.4673906 105.4626574
 204.8177005 161.9815280 105.3524780 204.4239989 161.0468091 106.5009994
 202.9159551 161.0621187 106.7559279 202.2414240 160.4122166 105.5654070
 200.7330011 160.4829084 105.5740254 200.2528935 159.7873068 104.3025470
 198.7448128 159.7840083 104.2104067 210.9640000 160.0850000 103.5610000
 210.8870455 159.7143397 103.5686543 210.8045611 159.3824972 105.3085043
 213.1709754 167.3196320 106.9178291 213.3111727 165.9162427 105.8524485
 211.0639720 166.4456836 104.8750912 210.9248237 167.8324455 105.9548742
 211.0702239 166.3228512 107.9332884 211.2354698 164.9207144 106.8669043
 209.0513187 165.4887845 105.7925598 208.8948951 166.8920287 106.8503450
 209.0232658 165.3452563 108.8385970 209.0033866 163.9617500 107.7485358
 206.8937068 166.1949578 107.7325596 206.8706052 164.7973389 108.7448530
 206.8853425 163.2949625 106.6783618 206.8793881 164.7404737 105.6612644
 204.6582357 166.2336140 107.5714736 203.3233203 165.6506983 106.5752458
 204.5890002 166.3387926 104.5304638 206.0027742 166.7475952 105.5079588
 204.6589731 168.4645757 106.7301851 203.2585120 168.0752478 105.7266421
 204.5679548 168.7067877 103.6812164 205.9585354 169.0987619 104.6955471
 204.6160479 170.8481915 105.8655017 203.2137292 170.4547877 104.8762742
 204.5225892 171.0328654 102.8153420 205.9150986 171.4442493 103.8183350
 204.5727766 173.2337647 104.9497785 203.1770217 172.8183078 103.9503739
 205.8779208 173.8154951 102.8963196 204.3820697 174.7608999 103.0043585
 204.4818333 173.3878719 101.8883785 204.9500542 162.6969619 108.0571353
 203.4076585 163.5775741 107.8667896 204.3606181 165.4980562 109.1641875
 205.8958946 164.6367973 109.3162741 204.6577371 162.8440534 110.6080741
 203.1774861 163.8020040 110.4475076 204.3375385 165.7553520 111.5254737
 205.7965863 164.7814758 111.7051921 204.5456746 163.1848178 113.1758960
 203.0909449 164.1771222 112.9998867 204.3171845 166.1462743 113.9546315
 205.7674190 165.1588191 114.1301142 204.5367463 163.6231405 115.6781609
 203.0850939 164.6123802 115.5046289 205.7653060 165.5876533 116.6311465
 204.3169238 165.1942630 117.5752081 204.3007895 166.5764462 116.4645654
 204.8770187 163.8982503 104.5463470 203.3789227 163.6192412 105.4459758
 205.8557693 161.8349571 105.0502213 204.3300396 161.6289919 104.4378611
 204.9890450 161.2397473 107.4158266 204.7267210 160.0241249 106.2324306
 202.5415027 162.0854618 106.9009114 202.6848803 160.5166479 107.6774419
 202.5713367 159.3671193 105.5097990 202.5609557 160.8907440 104.6377341
 200.4082828 161.5330481 105.5763643 200.3294417 160.0039961 106.4687257
 200.6241578 158.7556438 104.2853392 200.6697045 160.2881868 103.4197974
 198.3108941 159.2861213 105.0815216 198.4301443 159.2520585 103.3095859
 198.3631053 160.8083538 104.1623582 212.8950000 157.0180000  98.9500000
 202.4800000 168.9820000 108.2470000 208.7478435 171.4852258 109.1858018
 207.2186208 171.4943423 109.1858476 206.6539748 170.0723454 109.1849514
 205.1257844 170.0789019 109.1843803 204.5542430 168.6790000 109.1840000
 203.2000000 168.6790000 109.1840000 205.2044269 167.6467992 109.1834242
 202.2930000 169.5830000 106.3890000 201.9219627 169.5826082 107.5224083
 201.9189482 168.9666945 109.1864991 209.1170424 170.9508952 110.0692020
 209.1177372 170.9499623 108.3042715 206.8552267 172.0339011 108.3034328
 206.8541634 172.0339044 110.0683625 207.0201151 169.5284740 110.0639224
 207.0200361 169.5299952 108.3037225 204.7585586 170.5973983 108.2921832
 204.7587875 170.5968719 110.0776810 202.8077631 169.5723881 109.1840000
 211.4260000 159.8170000 122.4900000 212.8757774 166.9182005 123.9161438
 211.3666515 166.8327848 123.8292115 210.8069757 165.9296163 124.9202000
 209.3082477 165.8740210 124.7533451 208.6891405 165.0072373 125.8263042
 207.1828159 165.1391808 125.7517451 206.5650844 164.3380000 124.6030000
 205.0190000 164.3380000 124.6030000 204.4116962 165.7647263 124.6030000
 204.9095752 166.6912788 123.4904628 204.3548467 168.1047891 123.7130727
 204.8623630 169.0682987 122.6450697 204.3104345 170.4794171 122.8658251
 204.8189850 171.4196350 121.7706482 204.2722930 172.8347717 121.9477523
 204.7848685 173.7521607 120.8498112 204.4955855 163.6881111 125.9500708
 204.8144433 164.5060878 127.1944143 204.2723105 163.8664234 128.4688002
 204.7003195 164.7303543 129.6489314 204.1840424 164.2090436 130.9835243
 204.6719724 165.1228103 132.1072741 204.1825094 164.6440682 133.4644483
 204.6703657 165.5550515 134.5783876 204.4641881 163.4673906 123.4366574
 204.8177005 161.9815280 123.3264780 204.4239989 161.0468091 124.4749994
 202.9159551 161.0621187 124.7299279 202.2414240 160.4122166 123.5394070
 200.7330011 160.4829084 123.5480254 200.2528935 159.7873068 122.2765470
 198.7448128 159.7840083 122.1844067 210.9640000 160.0850000 121.5350000
 210.8870455 159.7143397 121.5426543 210.8045611 159.3824972 123.2825043
 213.1709754 167.3196320 124.8918291 213.3111727 165.9162427 123.8264485
 211.0639720 166.4456836 122.8490912 210.9248237 167.8324455 123.9288742
 211.0702239 166.3228512 125.9072884 211.2354698 164.9207144 124.8409043
 209.0513187 165.4887845 123.7665598 208.8948951 166.8920287 124.8243450
 209.0232658 165.3452563 126.8125970 209.0033866 163.9617500 125.7225358
 206.8937068 166.1949578 125.7065596 206.8706052 164.7973389 126.7188530
 206.8853425 163.2949625 124.6523618 206.8793881 164.7404737 123.6352644
 204.6582357 166.2336140 125.5454736 203.3233203 165.6506983 124.5492458
 204.5890002 166.3387926 122.5044638 206.0027742 166.7475952 123.4819588
 204.6589731 168.4645757 124.7041851 203.2585120 168.0752478 123.7006421
 204.5679548 168.7067877 121.6552164 205.9585354 169.0987619 122.6695471
 204.6160479 170.8481915 123.8395017 203.2137292 170.4547877 122.8502742
 204.5225892 171.0328654 120.7893420 205.9150986 171.4442493 121.7923350
 204.5727766 173.2337647 122.9237785 203.1770217 172.8183078 121.9243739
 205.8779208 173.8154951 120.8703196 204.3820697 174.7608999 120.9783585
 204.4818333 173.3878719 119.8623785 204.9500542 162.6969619 126.0311353
 203.4076585 163.5775741 125.8407896 204.3606181 165.4980562 127.1381875
 205.8958946 164.6367973 127.2902741 204.6577371 162.8440534 128.5820741
 203.1774861 163.8020040 128.4215076 204.3375385 165.7553520 129.4994737
 205.7965863 164.7814758 129.6791921 204.5456746 163.1848178 131.1498960
 203.0909449 164.1771222 130.9738867 204.3171845 166.1462743 131.9286315
 205.7674190 165.1588191 132.1041142 204.5367463 163.6231405 133.6521609
 203.0850939 164.6123802 133.4786289 205.7653060 165.5876533 134.6051465
 204.3169238 165.1942630 135.5492081 204.3007895 166.5764462 134.4385654
 204.8770187 163.8982503 122.5203470 203.3789227 163.6192412 123.4199758
 205.8557693 161.8349571 123.0242213 204.3300396 161.6289919 122.4118611
 204.9890450 161.2397473 125.3898266 204.7267210 160.0241249 124.2064306
 202.5415027 162.0854618 124.8749114 202.6848803 160.5166479 125.6514419
 202.5713367 159.3671193 123.4837990 202.5609557 160.8907440 122.6117341
 200.4082828 161.5330481 123.5503643 200.3294417 160.0039961 124.4427257
 200.6241578 158.7556438 122.2593392 200.6697045 160.2881868 121.3937974
 198.3108941 159.2861213 123.0555216 198.4301443 159.2520585 121.2835859
 198.3631053 160.8083538 122.1363582 212.8950000 157.0180000 116.9240000
 202.4800000 168.9820000 126.2210000 208.7478435 171.4852258 127.1598018
 207.2186208 171.4943423 127.1598476 206.6539748 170.0723454 127.1589514
 205.1257844 170.0789019 127.1583803 204.5542430 168.6790000 127.1580000
 203.2000000 168.6790000 127.1580000 205.2044269 167.6467992 127.1574242
 202.2930000 169.5830000 124.3630000 201.9219627 169.5826082 125.4964083
 201.9189482 168.9666945 127.1604991 209.1170424 170.9508952 128.0432020
 209.1177372 170.9499623 126.2782715 206.8552267 172.0339011 126.2774328
 206.8541634 172.0339044 128.0423625 207.0201151 169.5284740 128.0379224
 207.0200361 169.5299952 126.2777225 204.7585586 170.5973983 126.2661832
 204.7587875 170.5968719 128.0516810 202.8077631 169.5723881 127.1580000
 211.4260000 159.8170000 140.4650000 212.8757774 166.9182005 141.8911438
 211.3666515 166.8327848 141.8042115 210.8069757 165.9296163 142.8952000
 209.3082477 165.8740210 142.7283451 208.6891405 165.0072373 143.8013042
 207.1828159 165.1391808 143.7267451 206.5650844 164.3380000 142.5780000
 205.0190000 164.3380000 142.5780000 204.4116962 165.7647263 142.5780000
 204.9095752 166.6912788 141.4654628 204.3548467 168.1047891 141.6880727
 204.8623630 169.0682987 140.6200697 204.3104345 170.4794171 140.8408251
 204.8189850 171.4196350 139.7456482 204.2722930 172.8347717 139.9227523
 204.7848685 173.7521607 138.8248112 204.4955855 163.6881111 143.9250708
 204.8144433 164.5060878 145.1694143 204.2723105 163.8664234 146.4438002
 204.7003195 164.7303543 147.6239314 204.1840424 164.2090436 148.9585243
 204.6719724 165.1228103 150.0822741 204.1825094 164.6440682 151.4394483
 204.6703657 165.5550515 152.5533876 204.4641881 163.4673906 141.4116574
 204.8177005 161.9815280 141.3014780 204.4239989 161.0468091 142.4499994
 202.9159551 161.0621187 142.7049279 202.2414240 160.4122166 141.5144070
 200.7330011 160.4829084 141.5230254 200.2528935 159.7873068 140.2515470
 198.7448128 159.7840083 140.1594067 210.9640000 160.0850000 139.5100000
 210.8870455 159.7143397 139.5176543 210.8045611 159.3824972 141.2575043
 213.1709754 167.3196320 142.8668291 213.3111727 165.9162427 141.8014485
 211.0639720 166.4456836 140.8240912 210.9248237 167.8324455 141.9038742
 211.0702239 166.3228512 143.8822884 211.2354698 164.9207144 142.8159043
 209.0513187 165.4887845 141.7415598 208.8948951 166.8920287 142.7993450
 209.0232658 165.3452563 144.7875970 209.0033866 163.9617500 143.6975358
 206.8937068 166.1949578 143.6815596 206.8706052 164.7973389 144.6938530
 206.8853425 163.2949625 142.6273618 206.8793881 164.7404737 141.6102644
 204.6582357 166.2336140 143.5204736 203.3233203 165.6506983 142.5242458
 204.5890002 166.3387926 140.4794638 206.0027742 166.7475952 141.4569588
 204.6589731 168.4645757 142.6791851 203.2585120 168.0752478 141.6756421
 204.5679548 168.7067877 139.6302164 205.9585354 169.0987619 140.6445471
 204.6160479 170.8481915 141.8145017 203.2137292 170.4547877 140.8252742
 204.5225892 171.0328654 138.7643420 205.9150986 171.4442493 139.7673350
 204.5727766 173.2337647 140.8987785 203.1770217 172.8183078 139.8993739
 205.8779208 173.8154951 138.8453196 204.3820697 174.7608999 138.9533585
 204.4818333 173.3878719 137.8373785 204.9500542 162.6969619 144.0061353
 203.4076585 163.5775741 143.8157896 204.3606181 165.4980562 145.1131875
 205.8958946 164.6367973 145.2652741 204.6577371 162.8440534 146.5570741
 203.1774861 163.8020040 146.3965076 204.3375385 165.7553520 147.4744737
 205.7965863 164.7814758 147.6541921 204.5456746 163.1848178 149.1248960
 203.0909449 164.1771222 148.9488867 204.3171845 166.1462743 149.9036315
 205.7674190 165.1588191 150.0791142 204.5367463 163.6231405 151.6271609
 203.0850939 164.6123802 151.4536289 205.7653060 165.5876533 152.5801465
 204.3169238 165.1942630 153.5242081 204.3007895 166.5764462 152.4135654
 204.8770187 163.8982503 140.4953470 203.3789227 163.6192412 141.3949758
 205.8557693 161.8349571 140.9992213 204.3300396 161.6289919 140.3868611
 204.9890450 161.2397473 143.3648266 204.7267210 160.0241249 142.1814306
 202.5415027 162.0854618 142.8499114 202.6848803 160.5166479 143.6264419
 202.5713367 159.3671193 141.4587990 202.5609557 160.8907440 140.5867341
 200.4082828 161.5330481 141.5253643 200.3294417 160.0039961 142.4177257
 200.6241578 158.7556438 140.2343392 200.6697045 160.2881868 139.3687974
 198.3108941 159.2861213 141.0305216 198.4301443 159.2520585 139.2585859
 198.3631053 160.8083538 140.1113582 212.8950000 157.0180000 134.8990000
 202.4800000 168.9820000 144.1960000 208.7478435 171.4852258 145.1348018
 207.2186208 171.4943423 145.1348476 206.6539748 170.0723454 145.1339514
 205.1257844 170.0789019 145.1333803 204.5542430 168.6790000 145.1330000
 203.2000000 168.6790000 145.1330000 205.2044269 167.6467992 145.1324242
 202.2930000 169.5830000 142.3380000 201.9219627 169.5826082 143.4714083
 201.9189482 168.9666945 145.1354991 209.1170424 170.9508952 146.0182020
 209.1177372 170.9499623 144.2532715 206.8552267 172.0339011 144.2524328
 206.8541634 172.0339044 146.0173625 207.0201151 169.5284740 146.0129224
 207.0200361 169.5299952 144.2527225 204.7585586 170.5973983 144.2411832
 204.7587875 170.5968719 146.0266810 202.8077631 169.5723881 145.1330000
 211.4260000 159.8170000 158.4400000 212.8757774 166.9182005 159.8661438
 211.3666515 166.8327848 159.7792115 210.8069757 165.9296163 160.8702000
 209.3082477 165.8740210 160.7033451 208.6891405 165.0072373 161.7763042
 207.1828159 165.1391808 161.7017451 206.5650844 164.3380000 160.5530000
 205.0190000 164.3380000 160.5530000 204.4116962 165.7647263 160.5530000
 204.9095752 166.6912788 159.4404628 204.3548467 168.1047891 159.6630727
 204.8623630 169.0682987 158.5950697 204.3104345 170.4794171 158.8158251
 204.8189850 171.4196350 157.7206482 204.2722930 172.8347717 157.8977523
 204.7848685 173.7521607 156.7998112 204.4955855 163.6881111 161.9000708
 204.8144433 164.5060878 163.1444143 204.2723105 163.8664234 164.4188002
 204.7003195 164.7303543 165.5989314 204.1840424 164.2090436 166.9335243
 204.6719724 165.1228103 168.0572741 204.1825094 164.6440682 169.4144483
 204.6703657 165.5550515 170.5283876 204.4641881 163.4673906 159.3866574
 204.8177005 161.9815280 159.2764780 204.4239989 161.0468091 160.4249994
 202.9159551 161.0621187 160.6799279 202.2414240 160.4122166 159.4894070
 200.7330011 160.4829084 159.4980254 200.2528935 159.7873068 158.2265470
 198.7448128 159.7840083 158.1344067 210.9640000 160.0850000 157.4850000
 210.8870455 159.7143397 157.4926543 210.8045611 159.3824972 159.2325043
 213.1709754 167.3196320 160.8418291 213.3111727 165.9162427 159.7764485
 211.0639720 166.4456836 158.7990912 210.9248237 167.8324455 159.8788742
 211.0702239 166.3228512 161.8572884 211.2354698 164.9207144 160.7909043
 209.0513187 165.4887845 159.7165598 208.8948951 166.8920287 160.7743450
 209.0232658 165.3452563 162.7625970 209.0033866 163.9617500 161.6725358
 206.8937068 166.1949578 161.6565596 206.8706052 164.7973389 162.6688530
 206.8853425 163.2949625 160.6023618 206.8793881 164.7404737 159.5852644
 204.6582357 166.2336140 161.4954736 203.3233203 165.6506983 160.4992458
 204.5890002 166.3387926 158.4544638 206.0027742 166.7475952 159.4319588
 204.6589731 168.4645757 160.6541851 203.2585120 168.0752478 159.6506421
 204.5679548 168.7067877 157.6052164 205.9585354 169.0987619 158.6195471
 204.6160479 170.8481915 159.7895017 203.2137292 170.4547877 158.8002742
 204.5225892 171.0328654 156.7393420 205.9150986 171.4442493 157.7423350
 204.5727766 173.2337647 158.8737785 203.1770217 172.8183078 157.8743739
 205.8779208 173.8154951 156.8203196 204.3820697 174.7608999 156.9283585
 204.4818333 173.3878719 155.8123785 204.9500542 162.6969619 161.9811353
 203.4076585 163.5775741 161.7907896 204.3606181 165.4980562 163.0881875
 205.8958946 164.6367973 163.2402741 204.6577371 162.8440534 164.5320741
 203.1774861 163.8020040 164.3715076 204.3375385 165.7553520 165.4494737
 205.7965863 164.7814758 165.6291921 204.5456746 163.1848178 167.0998960
 203.0909449 164.1771222 166.9238867 204.3171845 166.1462743 167.8786315
 205.7674190 165.1588191 168.0541142 204.5367463 163.6231405 169.6021609
 203.0850939 164.6123802 169.4286289 205.7653060 165.5876533 170.5551465
 204.3169238 165.1942630 171.4992081 204.3007895 166.5764462 170.3885654
 204.8770187 163.8982503 158.4703470 203.3789227 163.6192412 159.3699758
 205.8557693 161.8349571 158.9742213 204.3300396 161.6289919 158.3618611
 204.9890450 161.2397473 161.3398266 204.7267210 160.0241249 160.1564306
 202.5415027 162.0854618 160.8249114 202.6848803 160.5166479 161.6014419
 202.5713367 159.3671193 159.4337990 202.5609557 160.8907440 158.5617341
 200.4082828 161.5330481 159.5003643 200.3294417 160.0039961 160.3927257
 200.6241578 158.7556438 158.2093392 200.6697045 160.2881868 157.3437974
 198.3108941 159.2861213 159.0055216 198.4301443 159.2520585 157.2335859
 198.3631053 160.8083538 158.0863582 212.8950000 157.0180000 152.8740000
 202.4800000 168.9820000 162.1710000 208.7478435 171.4852258 163.1098018
 207.2186208 171.4943423 163.1098476 206.6539748 170.0723454 163.1089514
 205.1257844 170.0789019 163.1083803 204.5542430 168.6790000 163.1080000
 203.2000000 168.6790000 163.1080000 205.2044269 167.6467992 163.1074242
 202.2930000 169.5830000 160.3130000 201.9219627 169.5826082 161.4464083
 201.9189482 168.9666945 163.1104991 209.1170424 170.9508952 163.9932020
 209.1177372 170.9499623 162.2282715 206.8552267 172.0339011 162.2274328
 206.8541634 172.0339044 163.9923625 207.0201151 169.5284740 163.9879224
 207.0200361 169.5299952 162.2277225 204.7585586 170.5973983 162.2161832
 204.7587875 170.5968719 164.0016810 202.8077631 169.5723881 163.1080000
 211.4260000 159.8170000 176.4150000 212.8757774 166.9182005 177.8411438
 211.3666515 166.8327848 177.7542115 210.8069757 165.9296163 178.8452000
 209.3082477 165.8740210 178.6783451 208.6891405 165.0072373 179.7513042
 207.1828159 165.1391808 179.6767451 206.5650844 164.3380000 178.5280000
 205.0190000 164.3380000 178.5280000 204.4116962 165.7647263 178.5280000
 204.9095752 166.6912788 177.4154628 204.3548467 168.1047891 177.6380727
 204.8623630 169.0682987 176.5700697 204.3104345 170.4794171 176.7908251
 204.8189850 171.4196350 175.6956482 204.2722930 172.8347717 175.8727523
 204.7848685 173.7521607 174.7748112 204.4955855 163.6881111 179.8750708
 204.8144433 164.5060878 181.1194143 204.2723105 163.8664234 182.3938002
 204.7003195 164.7303543 183.5739314 204.1840424 164.2090436 184.9085243
 204.6719724 165.1228103 186.0322741 204.1825094 164.6440682 187.3894483
 204.6703657 165.5550515 188.5033876 204.4641881 163.4673906 177.3616574
 204.8177005 161.9815280 177.2514780 204.4239989 161.0468091 178.3999994
 202.9159551 161.0621187 178.6549279 202.2414240 160.4122166 177.4644070
 200.7330011 160.4829084 177.4730254 200.2528935 159.7873068 176.2015470
 198.7448128 159.7840083 176.1094067 210.9640000 160.0850000 175.4600000
 210.8870455 159.7143397 175.4676543 210.8045611 159.3824972 177.2075043
 213.1709754 167.3196320 178.8168291 213.3111727 165.9162427 177.7514485
 211.0639720 166.4456836 176.7740912 210.9248237 167.8324455 177.8538742
 211.0702239 166.3228512 179.8322884 211.2354698 164.9207144 178.7659043
 209.0513187 165.4887845 177.6915598 208.8948951 166.8920287 178.7493450
 209.0232658 165.3452563 180.7375970 209.0033866 163.9617500 179.6475358
 206.8937068 166.1949578 179.6315596 206.8706052 164.7973389 180.6438530
 206.8853425 163.2949625 178.5773618 206.8793881 164.7404737 177.5602644
 204.6582357 166.2336140 179.4704736 203.3233203 165.6506983 178.4742458
 204.5890002 166.3387926 176.4294638 206.0027742 166.7475952 177.4069588
 204.6589731 168.4645757 178.6291851 203.2585120 168.0752478 177.6256421
 204.5679548 168.7067877 175.5802164 205.9585354 169.0987619 176.5945471
 204.6160479 170.8481915 177.7645017 203.2137292 170.4547877 176.7752742
 204.5225892 171.0328654 174.7143420 205.9150986 171.4442493 175.7173350
 204.5727766 173.2337647 176.8487785 203.1770217 172.8183078 175.8493739
 205.8779208 173.8154951 174.7953196 204.3820697 174.7608999 174.9033585
 204.4818333 173.3878719 173.7873785 204.9500542 162.6969619 179.9561353
 203.4076585 163.5775741 179.7657896 204.3606181 165.4980562 181.0631875
 205.8958946 164.6367973 181.2152741 204.6577371 162.8440534 182.5070741
 203.1774861 163.8020040 182.3465076 204.3375385 165.7553520 183.4244737
 205.7965863 164.7814758 183.6041921 204.5456746 163.1848178 185.0748960
 203.0909449 164.1771222 184.8988867 204.3171845 166.1462743 185.8536315
 205.7674190 165.1588191 186.0291142 204.5367463 163.6231405 187.5771609
 203.0850939 164.6123802 187.4036289 205.7653060 165.5876533 188.5301465
 204.3169238 165.1942630 189.4742081 204.3007895 166.5764462 188.3635654
 204.8770187 163.8982503 176.4453470 203.3789227 163.6192412 177.3449758
 205.8557693 161.8349571 176.9492213 204.3300396 161.6289919 176.3368611
 204.9890450 161.2397473 179.3148266 204.7267210 160.0241249 178.1314306
 202.5415027 162.0854618 178.7999114 202.6848803 160.5166479 179.5764419
 202.5713367 159.3671193 177.4087990 202.5609557 160.8907440 176.5367341
 200.4082828 161.5330481 177.4753643 200.3294417 160.0039961 178.3677257
 200.6241578 158.7556438 176.1843392 200.6697045 160.2881868 175.3187974
 198.3108941 159.2861213 176.9805216 198.4301443 159.2520585 175.2085859
 198.3631053 160.8083538 176.0613582 212.8950000 157.0180000 170.8490000
 202.4800000 168.9820000 180.1460000 208.7478435 171.4852258 181.0848018
 207.2186208 171.4943423 181.0848476 206.6539748 170.0723454 181.0839514
 205.1257844 170.0789019 181.0833803 204.5542430 168.6790000 181.0830000
 203.2000000 168.6790000 181.0830000 205.2044269 167.6467992 181.0824242
 202.2930000 169.5830000 178.2880000 201.9219627 169.5826082 179.4214083
 201.9189482 168.9666945 181.0854991 209.1170424 170.9508952 181.9682020
 209.1177372 170.9499623 180.2032715 206.8552267 172.0339011 180.2024328
 206.8541634 172.0339044 181.9673625 207.0201151 169.5284740 181.9629224
 207.0200361 169.5299952 180.2027225 204.7585586 170.5973983 180.1911832
 204.7587875 170.5968719 181.9766810 202.8077631 169.5723881 181.0830000
 211.4260000 178.4210000  68.5660000 212.8757774 185.5222005  69.9921438
 211.3666515 185.4367848  69.9052115 210.8069757 184.5336163  70.9962000
 209.3082477 184.4780210  70.8293451 208.6891405 183.6112373  71.9023042
 207.1828159 183.7431808  71.8277451 206.5650844 182.9420000  70.6790000
 205.0190000 182.9420000  70.6790000 204.4116962 184.3687263  70.6790000
 204.9095752 185.2952788  69.5664628 204.3548467 186.7087891  69.7890727
 204.8623630 187.6722987  68.7210697 204.3104345 189.0834171  68.9418251
 204.8189850 190.0236350  67.8466482 204.2722930 191.4387717  68.0237523
 204.7848685 192.3561607  66.9258112 204.4955855 182.2921111  72.0260708
 204.8144433 183.1100878  73.2704143 204.2723105 182.4704234  74.5448002
 204.7003195 183.3343543  75.7249314 204.1840424 182.8130436  77.0595243
 204.6719724 183.7268103  78.1832741 204.1825094 183.2480682  79.5404483
 204.6703657 184.1590515  80.6543876 204.4641881 182.0713906  69.5126574
 204.8177005 180.5855280  69.4024780 204.4239989 179.6508091  70.5509994
 202.9159551 179.6661187  70.8059279 202.2414240 179.0162166  69.6154070
 200.7330011 179.0869084  69.6240254 200.2528935 178.3913068  68.3525470
 198.7448128 178.3880083  68.2604067 210.9640000 178.6890000  67.6110000
 210.8870455 178.3183397  67.6186543 210.8045611 177.9864972  69.3585043
 213.1709754 185.9236320  70.9678291 213.3111727 184.5202427  69.9024485
 211.0639720 185.0496836  68.9250912 210.9248237 186.4364455  70.0048742
 211.0702239 184.9268512  71.9832884 211.2354698 183.5247144  70.9169043
 209.0513187 184.0927845  69.8425598 208.8948951 185.4960287  70.9003450
 209.0232658 183.9492563  72.8885970 209.0033866 182.5657500  71.7985358
 206.8937068 184.7989578  71.7825596 206.8706052 183.4013389  72.7948530
 206.8853425 181.8989625  70.7283618 206.8793881 183.3444737  69.7112644
 204.6582357 184.8376140  71.6214736 203.3233203 184.2546983  70.6252458
 204.5890002 184.9427926  68.5804638 206.0027742 185.3515952  69.5579588
 204.6589731 187.0685757  70.7801851 203.2585120 186.6792478  69.7766421
 204.5679548 187.3107877  67.7312164 205.9585354 187.7027619  68.7455471
 204.6160479 189.4521915  69.9155017 203.2137292 189.0587877  68.9262742
 204.5225892 189.6368654  66.8653420 205.9150986 190.0482493  67.8683350
 204.5727766 191.8377647  68.9997785 203.1770217 191.4223078  68.0003739
 205.8779208 192.4194951  66.9463196 204.3820697 193.3648999  67.0543585
 204.4818333 191.9918719  65.9383785 204.9500542 181.3009619  72.1071353
 203.4076585 182.1815741  71.9167896 204.3606181 184.1020562  73.2141875
 205.8958946 183.2407973  73.3662741 204.6577371 181.4480534  74.6580741
 203.1774861 182.4060040  74.4975076 204.3375385 184.3593520  75.5754737
 205.7965863 183.3854758  75.7551921 204.5456746 181.7888178  77.2258960
 203.0909449 182.7811222  77.0498867 204.3171845 184.7502743  78.0046315
 205.7674190 183.7628191  78.1801142 204.5367463 182.2271405  79.7281609
 203.0850939 183.2163802  79.5546289 205.7653060 184.1916533  80.6811465
 204.3169238 183.7982630  81.6252081 204.3007895 185.1804462  80.5145654
 204.8770187 182.5022503  68.5963470 203.3789227 182.2232412  69.4959758
 205.8557693 180.4389571  69.1002213 204.3300396 180.2329919  68.4878611
 204.9890450 179.8437473  71.4658266 204.7267210 178.6281249  70.2824306
 202.5415027 180.6894618  70.9509114 202.6848803 179.1206479  71.7274419
 202.5713367 177.9711193  69.5597990 202.5609557 179.4947440  68.6877341
 200.4082828 180.1370481  69.6263643 200.3294417 178.6079961  70.5187257
 200.6241578 177.3596438  68.3353392 200.6697045 178.8921868  67.4697974
 198.3108941 177.8901213  69.1315216 198.4301443 177.8560585  67.3595859
 198.3631053 179.4123538  68.2123582 212.8950000 175.6220000  63.0000000
 202.4800000 187.5860000  72.2970000 208.7478435 190.0892258  73.2358018
 207.2186208 190.0983423  73.2358476 206.6539748 188.6763454  73.2349514
 205.1257844 188.6829019  73.2343803 204.5542430 187.2830000  73.2340000
 203.2000000 187.2830000  73.2340000 205.2044269 186.2507992  73.2334242
 202.2930000 188.1870000  70.4390000 201.9219627 188.1866082  71.5724083
 201.9189482 187.5706945  73.2364991 209.1170424 189.5548952  74.1192020
 209.1177372 189.5539623  72.3542715 206.8552267 190.6379011  72.3534328
 206.8541634 190.6379044  74.1183625 207.0201151 188.1324740  74.1139224
 207.0200361 188.1339952  72.3537225 204.7585586 189.2013983  72.3421832
 204.7587875 189.2008719  74.1276810 202.8077631 188.1763881  73.2340000
 211.4260000 178.4210000  86.5410000 212.8757774 185.5222005  87.9671438
 211.3666515 185.4367848  87.8802115 210.8069757 184.5336163  88.9712000
 209.3082477 184.4780210  88.8043451 208.6891405 183.6112373  89.8773042
 207.1828159 183.7431808  89.8027451 206.5650844 182.9420000  88.6540000
 205.0190000 182.9420000  88.6540000 204.4116962 184.3687263  88.6540000
 204.9095752 185.2952788  87.5414628 204.3548467 186.7087891  87.7640727
 204.8623630 187.6722987  86.6960697 204.3104345 189.0834171  86.9168251
 204.8189850 190.0236350  85.8216482 204.2722930 191.4387717  85.9987523
 204.7848685 192.3561607  84.9008112 204.4955855 182.2921111  90.0010708
 204.8144433 183.1100878  91.2454143 204.2723105 182.4704234  92.5198002
 204.7003195 183.3343543  93.6999314 204.1840424 182.8130436  95.0345243
 204.6719724 183.7268103  96.1582741 204.1825094 183.2480682  97.5154483
 204.6703657 184.1590515  98.6293876 204.4641881 182.0713906  87.4876574
 204.8177005 180.5855280  87.3774780 204.4239989 179.6508091  88.5259994
 202.9159551 179.6661187  88.7809279 202.2414240 179.0162166  87.5904070
 200.7330011 179.0869084  87.5990254 200.2528935 178.3913068  86.3275470
 198.7448128 178.3880083  86.2354067 210.9640000 178.6890000  85.5860000
 210.8870455 178.3183397  85.5936543 210.8045611 177.9864972  87.3335043
 213.1709754 185.9236320  88.9428291 213.3111727 184.5202427  87.8774485
 211.0639720 185.0496836  86.9000912 210.9248237 186.4364455  87.9798742
 211.0702239 184.9268512  89.9582884 211.2354698 183.5247144  88.8919043
 209.0513187 184.0927845  87.8175598 208.8948951 185.4960287  88.8753450
 209.0232658 183.9492563  90.8635970 209.0033866 182.5657500  89.7735358
 206.8937068 184.7989578  89.7575596 206.8706052 183.4013389  90.7698530
 206.8853425 181.8989625  88.7033618 206.8793881 183.3444737  87.6862644
 204.6582357 184.8376140  89.5964736 203.3233203 184.2546983  88.6002458
 204.5890002 184.9427926  86.5554638 206.0027742 185.3515952  87.5329588
 204.6589731 187.0685757  88.7551851 203.2585120 186.6792478  87.7516421
 204.5679548 187.3107877  85.7062164 205.9585354 187.7027619  86.7205471
 204.6160479 189.4521915  87.8905017 203.2137292 189.0587877  86.9012742
 204.5225892 189.6368654  84.8403420 205.9150986 190.0482493  85.8433350
 204.5727766 191.8377647  86.9747785 203.1770217 191.4223078  85.9753739
 205.8779208 192.4194951  84.9213196 204.3820697 193.3648999  85.0293585
 204.4818333 191.9918719  83.9133785 204.9500542 181.3009619  90.0821353
 203.4076585 182.1815741  89.8917896 204.3606181 184.1020562  91.1891875
 205.8958946 183.2407973  91.3412741 204.6577371 181.4480534  92.6330741
 203.1774861 182.4060040  92.4725076 204.3375385 184.3593520  93.5504737
 205.7965863 183.3854758  93.7301921 204.5456746 181.7888178  95.2008960
 203.0909449 182.7811222  95.0248867 204.3171845 184.7502743  95.9796315
 205.7674190 183.7628191  96.1551142 204.5367463 182.2271405  97.7031609
 203.0850939 183.2163802  97.5296289 205.7653060 184.1916533  98.6561465
 204.3169238 183.7982630  99.6002081 204.3007895 185.1804462  98.4895654
 204.8770187 182.5022503  86.5713470 203.3789227 182.2232412  87.4709758
 205.8557693 180.4389571  87.0752213 204.3300396 180.2329919  86.4628611
 204.9890450 179.8437473  89.4408266 204.7267210 178.6281249  88.2574306
 202.5415027 180.6894618  88.9259114 202.6848803 179.1206479  89.7024419
 202.5713367 177.9711193  87.5347990 202.5609557 179.4947440  86.6627341
 200.4082828 180.1370481  87.6013643 200.3294417 178.6079961  88.4937257
 200.6241578 177.3596438  86.3103392 200.6697045 178.8921868  85.4447974
 198.3108941 177.8901213  87.1065216 198.4301443 177.8560585  85.3345859
 198.3631053 179.4123538  86.1873582 212.8950000 175.6220000  80.9750000
 202.4800000 187.5860000  90.2720000 208.7478435 190.0892258  91.2108018
 207.2186208 190.0983423  91.2108476 206.6539748 188.6763454  91.2099514
 205.1257844 188.6829019  91.2093803 204.5542430 187.2830000  91.2090000
 203.2000000 187.2830000  91.2090000 205.2044269 186.2507992  91.2084242
 202.2930000 188.1870000  88.4140000 201.9219627 188.1866082  89.5474083
 201.9189482 187.5706945  91.2114991 209.1170424 189.5548952  92.0942020
 209.1177372 189.5539623  90.3292715 206.8552267 190.6379011  90.3284328
 206.8541634 190.6379044  92.0933625 207.0201151 188.1324740  92.0889224
 207.0200361 188.1339952  90.3287225 204.7585586 189.2013983  90.3171832
 204.7587875 189.2008719  92.1026810 202.8077631 188.1763881  91.2090000
 211.4260000 178.4210000 104.5160000 212.8757774 185.5222005 105.9421438
 211.3666515 185.4367848 105.8552115 210.8069757 184.5336163 106.9462000
 209.3082477 184.4780210 106.7793451 208.6891405 183.6112373 107.8523042
 207.1828159 183.7431808 107.7777451 206.5650844 182.9420000 106.6290000
 205.0190000 182.9420000 106.6290000 204.4116962 184.3687263 106.6290000
 204.9095752 185.2952788 105.5164628 204.3548467 186.7087891 105.7390727
 204.8623630 187.6722987 104.6710697 204.3104345 189.0834171 104.8918251
 204.8189850 190.0236350 103.7966482 204.2722930 191.4387717 103.9737523
 204.7848685 192.3561607 102.8758112 204.4955855 182.2921111 107.9760708
 204.8144433 183.1100878 109.2204143 204.2723105 182.4704234 110.4948002
 204.7003195 183.3343543 111.6749314 204.1840424 182.8130436 113.0095243
 204.6719724 183.7268103 114.1332741 204.1825094 183.2480682 115.4904483
 204.6703657 184.1590515 116.6043876 204.4641881 182.0713906 105.4626574
 204.8177005 180.5855280 105.3524780 204.4239989 179.6508091 106.5009994
 202.9159551 179.6661187 106.7559279 202.2414240 179.0162166 105.5654070
 200.7330011 179.0869084 105.5740254 200.2528935 178.3913068 104.3025470
 198.7448128 178.3880083 104.2104067 210.9640000 178.6890000 103.5610000
 210.8870455 178.3183397 103.5686543 210.8045611 177.9864972 105.3085043
 213.1709754 185.9236320 106.9178291 213.3111727 184.5202427 105.8524485
 211.0639720 185.0496836 104.8750912 210.9248237 186.4364455 105.9548742
 211.0702239 184.9268512 107.9332884 211.2354698 183.5247144 106.8669043
 209.0513187 184.0927845 105.7925598 208.8948951 185.4960287 106.8503450
 209.0232658 183.9492563 108.8385970 209.0033866 182.5657500 107.7485358
 206.8937068 184.7989578 107.7325596 206.8706052 183.4013389 108.7448530
 206.8853425 181.8989625 106.6783618 206.8793881 183.3444737 105.6612644
 204.6582357 184.8376140 107.5714736 203.3233203 184.2546983 106.5752458
 204.5890002 184.9427926 104.5304638 206.0027742 185.3515952 105.5079588
 204.6589731 187.0685757 106.7301851 203.2585120 186.6792478 105.7266421
 204.5679548 187.3107877 103.6812164 205.9585354 187.7027619 104.6955471
 204.6160479 189.4521915 105.8655017 203.2137292 189.0587877 104.8762742
 204.5225892 189.6368654 102.8153420 205.9150986 190.0482493 103.8183350
 204.5727766 191.8377647 104.9497785 203.1770217 191.4223078 103.9503739
 205.8779208 192.4194951 102.8963196 204.3820697 193.3648999 103.0043585
 204.4818333 191.9918719 101.8883785 204.9500542 181.3009619 108.0571353
 203.4076585 182.1815741 107.8667896 204.3606181 184.1020562 109.1641875
 205.8958946 183.2407973 109.3162741 204.6577371 181.4480534 110.6080741
 203.1774861 182.4060040 110.4475076 204.3375385 184.3593520 111.5254737
 205.7965863 183.3854758 111.7051921 204.5456746 181.7888178 113.1758960
 203.0909449 182.7811222 112.9998867 204.3171845 184.7502743 113.9546315
 205.7674190 183.7628191 114.1301142 204.5367463 182.2271405 115.6781609
 203.0850939 183.2163802 115.5046289 205.7653060 184.1916533 116.6311465
 204.3169238 183.7982630 117.5752081 204.3007895 185.1804462 116.4645654
 204.8770187 182.5022503 104.5463470 203.3789227 182.2232412 105.4459758
 205.8557693 180.4389571 105.0502213 204.3300396 180.2329919 104.4378611
 204.9890450 179.8437473 107.4158266 204.7267210 178.6281249 106.2324306
 202.5415027 180.6894618 106.9009114 202.6848803 179.1206479 107.6774419
 202.5713367 177.9711193 105.5097990 202.5609557 179.4947440 104.6377341
 200.4082828 180.1370481 105.5763643 200.3294417 178.6079961 106.4687257
 200.6241578 177.3596438 104.2853392 200.6697045 178.8921868 103.4197974
 198.3108941 177.8901213 105.0815216 198.4301443 177.8560585 103.3095859
 198.3631053 179.4123538 104.1623582 212.8950000 175.6220000  98.9500000
 202.4800000 187.5860000 108.2470000 208.7478435 190.0892258 109.1858018
 207.2186208 190.0983423 109.1858476 206.6539748 188.6763454 109.1849514
 205.1257844 188.6829019 109.1843803 204.5542430 187.2830000 109.1840000
 203.2000000 187.2830000 109.1840000 205.2044269 186.2507992 109.1834242
 202.2930000 188.1870000 106.3890000 201.9219627 188.1866082 107.5224083
 201.9189482 187.5706945 109.1864991 209.1170424 189.5548952 110.0692020
 209.1177372 189.5539623 108.3042715 206.8552267 190.6379011 108.3034328
 206.8541634 190.6379044 110.0683625 207.0201151 188.1324740 110.0639224
 207.0200361 188.1339952 108.3037225 204.7585586 189.2013983 108.2921832
 204.7587875 189.2008719 110.0776810 202.8077631 188.1763881 109.1840000
 211.4260000 178.4210000 122.4900000 212.8757774 185.5222005 123.9161438
 211.3666515 185.4367848 123.8292115 210.8069757 184.5336163 124.9202000
 209.3082477 184.4780210 124.7533451 208.6891405 183.6112373 125.8263042
 207.1828159 183.7431808 125.7517451 206.5650844 182.9420000 124.6030000
 205.0190000 182.9420000 124.6030000 204.4116962 184.3687263 124.6030000
 204.9095752 185.2952788 123.4904628 204.3548467 186.7087891 123.7130727
 204.8623630 187.6722987 122.6450697 204.3104345 189.0834171 122.8658251
 204.8189850 190.0236350 121.7706482 204.2722930 191.4387717 121.9477523
 204.7848685 192.3561607 120.8498112 204.4955855 182.2921111 125.9500708
 204.8144433 183.1100878 127.1944143 204.2723105 182.4704234 128.4688002
 204.7003195 183.3343543 129.6489314 204.1840424 182.8130436 130.9835243
 204.6719724 183.7268103 132.1072741 204.1825094 183.2480682 133.4644483
 204.6703657 184.1590515 134.5783876 204.4641881 182.0713906 123.4366574
 204.8177005 180.5855280 123.3264780 204.4239989 179.6508091 124.4749994
 202.9159551 179.6661187 124.7299279 202.2414240 179.0162166 123.5394070
 200.7330011 179.0869084 123.5480254 200.2528935 178.3913068 122.2765470
 198.7448128 178.3880083 122.1844067 210.9640000 178.6890000 121.5350000
 210.8870455 178.3183397 121.5426543 210.8045611 177.9864972 123.2825043
 213.1709754 185.9236320 124.8918291 213.3111727 184.5202427 123.8264485
 211.0639720 185.0496836 122.8490912 210.9248237 186.4364455 123.9288742
 211.0702239 184.9268512 125.9072884 211.2354698 183.5247144 124.8409043
 209.0513187 184.0927845 123.7665598 208.8948951 185.4960287 124.8243450
 209.0232658 183.9492563 126.8125970 209.0033866 182.5657500 125.7225358
 206.8937068 184.7989578 125.7065596 206.8706052 183.4013389 126.7188530
 206.8853425 181.8989625 124.6523618 206.8793881 183.3444737 123.6352644
 204.6582357 184.8376140 125.5454736 203.3233203 184.2546983 124.5492458
 204.5890002 184.9427926 122.5044638 206.0027742 185.3515952 123.4819588
 204.6589731 187.0685757 124.7041851 203.2585120 186.6792478 123.7006421
 204.5679548 187.3107877 121.6552164 205.9585354 187.7027619 122.6695471
 204.6160479 189.4521915 123.8395017 203.2137292 189.0587877 122.8502742
 204.5225892 189.6368654 120.7893420 205.9150986 190.0482493 121.7923350
 204.5727766 191.8377647 122.9237785 203.1770217 191.4223078 121.9243739
 205.8779208 192.4194951 120.8703196 204.3820697 193.3648999 120.9783585
 204.4818333 191.9918719 119.8623785 204.9500542 181.3009619 126.0311353
 203.4076585 182.1815741 125.8407896 204.3606181 184.1020562 127.1381875
 205.8958946 183.2407973 127.2902741 204.6577371 181.4480534 128.5820741
 203.1774861 182.4060040 128.4215076 204.3375385 184.3593520 129.4994737
 205.7965863 183.3854758 129.6791921 204.5456746 181.7888178 131.1498960
 203.0909449 182.7811222 130.9738867 204.3171845 184.7502743 131.9286315
 205.7674190 183.7628191 132.1041142 204.5367463 182.2271405 133.6521609
 203.0850939 183.2163802 133.4786289 205.7653060 184.1916533 134.6051465
 204.3169238 183.7982630 135.5492081 204.3007895 185.1804462 134.4385654
 204.8770187 182.5022503 122.5203470 203.3789227 182.2232412 123.4199758
 205.8557693 180.4389571 123.0242213 204.3300396 180.2329919 122.4118611
 204.9890450 179.8437473 125.3898266 204.7267210 178.6281249 124.2064306
 202.5415027 180.6894618 124.8749114 202.6848803 179.1206479 125.6514419
 202.5713367 177.9711193 123.4837990 202.5609557 179.4947440 122.6117341
 200.4082828 180.1370481 123.5503643 200.3294417 178.6079961 124.4427257
 200.6241578 177.3596438 122.2593392 200.6697045 178.8921868 121.3937974
 198.3108941 177.8901213 123.0555216 198.4301443 177.8560585 121.2835859
 198.3631053 179.4123538 122.1363582 212.8950000 175.6220000 116.9240000
 202.4800000 187.5860000 126.2210000 208.7478435 190.0892258 127.1598018
 207.2186208 190.0983423 127.1598476 206.6539748 188.6763454 127.1589514
 205.1257844 188.6829019 127.1583803 204.5542430 187.2830000 127.1580000
 203.2000000 187.2830000 127.1580000 205.2044269 186.2507992 127.1574242
 202.2930000 188.1870000 124.3630000 201.9219627 188.1866082 125.4964083
 201.9189482 187.5706945 127.1604991 209.1170424 189.5548952 128.0432020
 209.1177372 189.5539623 126.2782715 206.8552267 190.6379011 126.2774328
 206.8541634 190.6379044 128.0423625 207.0201151 188.1324740 128.0379224
 207.0200361 188.1339952 126.2777225 204.7585586 189.2013983 126.2661832
 204.7587875 189.2008719 128.0516810 202.8077631 188.1763881 127.1580000
 211.4260000 178.4210000 140.4650000 212.8757774 185.5222005 141.8911438
 211.3666515 185.4367848 141.8042115 210.8069757 184.5336163 142.8952000
 209.3082477 184.4780210 142.7283451 208.6891405 183.6112373 143.8013042
 207.1828159 183.7431808 143.7267451 206.5650844 182.9420000 142.5780000
 205.0190000 182.9420000 142.5780000 204.4116962 184.3687263 142.5780000
 204.9095752 185.2952788 141.4654628 204.3548467 186.7087891 141.6880727
 204.8623630 187.6722987 140.6200697 204.3104345 189.0834171 140.8408251
 204.8189850 190.0236350 139.7456482 204.2722930 191.4387717 139.9227523
 204.7848685 192.3561607 138.8248112 204.4955855 182.2921111 143.9250708
 204.8144433 183.1100878 145.1694143 204.2723105 182.4704234 146.4438002
 204.7003195 183.3343543 147.6239314 204.1840424 182.8130436 148.9585243
 204.6719724 183.7268103 150.0822741 204.1825094 183.2480682 151.4394483
 204.6703657 184.1590515 152.5533876 204.4641881 182.0713906 141.4116574
 204.8177005 180.5855280 141.3014780 204.4239989 179.6508091 142.4499994
 202.9159551 179.6661187 142.7049279 202.2414240 179.0162166 141.5144070
 200.7330011 179.0869084 141.5230254 200.2528935 178.3913068 140.2515470
 198.7448128 178.3880083 140.1594067 210.9640000 178.6890000 139.5100000
 210.8870455 178.3183397 139.5176543 210.8045611 177.9864972 141.2575043
 213.1709754 185.9236320 142.8668291 213.3111727 184.5202427 141.8014485
 211.0639720 185.0496836 140.8240912 210.9248237 186.4364455 141.9038742
 211.0702239 184.9268512 143.8822884 211.2354698 183.5247144 142.8159043
 209.0513187 184.0927845 141.7415598 208.8948951 185.4960287 142.7993450
 209.0232658 183.9492563 144.7875970 209.0033866 182.5657500 143.6975358
 206.8937068 184.7989578 143.6815596 206.8706052 183.4013389 144.6938530
 206.8853425 181.8989625 142.6273618 206.8793881 183.3444737 141.6102644
 204.6582357 184.8376140 143.5204736 203.3233203 184.2546983 142.5242458
 204.5890002 184.9427926 140.4794638 206.0027742 185.3515952 141.4569588
 204.6589731 187.0685757 142.6791851 203.2585120 186.6792478 141.6756421
 204.5679548 187.3107877 139.6302164 205.9585354 187.7027619 140.6445471
 204.6160479 189.4521915 141.8145017 203.2137292 189.0587877 140.8252742
 204.5225892 189.6368654 138.7643420 205.9150986 190.0482493 139.7673350
 204.5727766 191.8377647 140.8987785 203.1770217 191.4223078 139.8993739
 205.8779208 192.4194951 138.8453196 204.3820697 193.3648999 138.9533585
 204.4818333 191.9918719 137.8373785 204.9500542 181.3009619 144.0061353
 203.4076585 182.1815741 143.8157896 204.3606181 184.1020562 145.1131875
 205.8958946 183.2407973 145.2652741 204.6577371 181.4480534 146.5570741
 203.1774861 182.4060040 146.3965076 204.3375385 184.3593520 147.4744737
 205.7965863 183.3854758 147.6541921 204.5456746 181.7888178 149.1248960
 203.0909449 182.7811222 148.9488867 204.3171845 184.7502743 149.9036315
 205.7674190 183.7628191 150.0791142 204.5367463 182.2271405 151.6271609
 203.0850939 183.2163802 151.4536289 205.7653060 184.1916533 152.5801465
 204.3169238 183.7982630 153.5242081 204.3007895 185.1804462 152.4135654
 204.8770187 182.5022503 140.4953470 203.3789227 182.2232412 141.3949758
 205.8557693 180.4389571 140.9992213 204.3300396 180.2329919 140.3868611
 204.9890450 179.8437473 143.3648266 204.7267210 178.6281249 142.1814306
 202.5415027 180.6894618 142.8499114 202.6848803 179.1206479 143.6264419
 202.5713367 177.9711193 141.4587990 202.5609557 179.4947440 140.5867341
 200.4082828 180.1370481 141.5253643 200.3294417 178.6079961 142.4177257
 200.6241578 177.3596438 140.2343392 200.6697045 178.8921868 139.3687974
 198.3108941 177.8901213 141.0305216 198.4301443 177.8560585 139.2585859
 198.3631053 179.4123538 140.1113582 212.8950000 175.6220000 134.8990000
 202.4800000 187.5860000 144.1960000 208.7478435 190.0892258 145.1348018
 207.2186208 190.0983423 145.1348476 206.6539748 188.6763454 145.1339514
 205.1257844 188.6829019 145.1333803 204.5542430 187.2830000 145.1330000
 203.2000000 187.2830000 145.1330000 205.2044269 186.2507992 145.1324242
 202.2930000 188.1870000 142.3380000 201.9219627 188.1866082 143.4714083
 201.9189482 187.5706945 145.1354991 209.1170424 189.5548952 146.0182020
 209.1177372 189.5539623 144.2532715 206.8552267 190.6379011 144.2524328
 206.8541634 190.6379044 146.0173625 207.0201151 188.1324740 146.0129224
 207.0200361 188.1339952 144.2527225 204.7585586 189.2013983 144.2411832
 204.7587875 189.2008719 146.0266810 202.8077631 188.1763881 145.1330000
 211.4260000 178.4210000 158.4400000 212.8757774 185.5222005 159.8661438
 211.3666515 185.4367848 159.7792115 210.8069757 184.5336163 160.8702000
 209.3082477 184.4780210 160.7033451 208.6891405 183.6112373 161.7763042
 207.1828159 183.7431808 161.7017451 206.5650844 182.9420000 160.5530000
 205.0190000 182.9420000 160.5530000 204.4116962 184.3687263 160.5530000
 204.9095752 185.2952788 159.4404628 204.3548467 186.7087891 159.6630727
 204.8623630 187.6722987 158.5950697 204.3104345 189.0834171 158.8158251
 204.8189850 190.0236350 157.7206482 204.2722930 191.4387717 157.8977523
 204.7848685 192.3561607 156.7998112 204.4955855 182.2921111 161.9000708
 204.8144433 183.1100878 163.1444143 204.2723105 182.4704234 164.4188002
 204.7003195 183.3343543 165.5989314 204.1840424 182.8130436 166.9335243
 204.6719724 183.7268103 168.0572741 204.1825094 183.2480682 169.4144483
 204.6703657 184.1590515 170.5283876 204.4641881 182.0713906 159.3866574
 204.8177005 180.5855280 159.2764780 204.4239989 179.6508091 160.4249994
 202.9159551 179.6661187 160.6799279 202.2414240 179.0162166 159.4894070
 200.7330011 179.0869084 159.4980254 200.2528935 178.3913068 158.2265470
 198.7448128 178.3880083 158.1344067 210.9640000 178.6890000 157.4850000
 210.8870455 178.3183397 157.4926543 210.8045611 177.9864972 159.2325043
 213.1709754 185.9236320 160.8418291 213.3111727 184.5202427 159.7764485
 211.0639720 185.0496836 158.7990912 210.9248237 186.4364455 159.8788742
 211.0702239 184.9268512 161.8572884 211.2354698 183.5247144 160.7909043
 209.0513187 184.0927845 159.7165598 208.8948951 185.4960287 160.7743450
 209.0232658 183.9492563 162.7625970 209.0033866 182.5657500 161.6725358
 206.8937068 184.7989578 161.6565596 206.8706052 183.4013389 162.6688530
 206.8853425 181.8989625 160.6023618 206.8793881 183.3444737 159.5852644
 204.6582357 184.8376140 161.4954736 203.3233203 184.2546983 160.4992458
 204.5890002 184.9427926 158.4544638 206.0027742 185.3515952 159.4319588
 204.6589731 187.0685757 160.6541851 203.2585120 186.6792478 159.6506421
 204.5679548 187.3107877 157.6052164 205.9585354 187.7027619 158.6195471
 204.6160479 189.4521915 159.7895017 203.2137292 189.0587877 158.8002742
 204.5225892 189.6368654 156.7393420 205.9150986 190.0482493 157.7423350
 204.5727766 191.8377647 158.8737785 203.1770217 191.4223078 157.8743739
 205.8779208 192.4194951 156.8203196 204.3820697 193.3648999 156.9283585
 204.4818333 191.9918719 155.8123785 204.9500542 181.3009619 161.9811353
 203.4076585 182.1815741 161.7907896 204.3606181 184.1020562 163.0881875
 205.8958946 183.2407973 163.2402741 204.6577371 181.4480534 164.5320741
 203.1774861 182.4060040 164.3715076 204.3375385 184.3593520 165.4494737
 205.7965863 183.3854758 165.6291921 204.5456746 181.7888178 167.0998960
 203.0909449 182.7811222 166.9238867 204.3171845 184.7502743 167.8786315
 205.7674190 183.7628191 168.0541142 204.5367463 182.2271405 169.6021609
 203.0850939 183.2163802 169.4286289 205.7653060 184.1916533 170.5551465
 204.3169238 183.7982630 171.4992081 204.3007895 185.1804462 170.3885654
 204.8770187 182.5022503 158.4703470 203.3789227 182.2232412 159.3699758
 205.8557693 180.4389571 158.9742213 204.3300396 180.2329919 158.3618611
 204.9890450 179.8437473 161.3398266 204.7267210 178.6281249 160.1564306
 202.5415027 180.6894618 160.8249114 202.6848803 179.1206479 161.6014419
 202.5713367 177.9711193 159.4337990 202.5609557 179.4947440 158.5617341
 200.4082828 180.1370481 159.5003643 200.3294417 178.6079961 160.3927257
 200.6241578 177.3596438 158.2093392 200.6697045 178.8921868 157.3437974
 198.3108941 177.8901213 159.0055216 198.4301443 177.8560585 157.2335859
 198.3631053 179.4123538 158.0863582 212.8950000 175.6220000 152.8740000
 202.4800000 187.5860000 162.1710000 208.7478435 190.0892258 163.1098018
 207.2186208 190.0983423 163.1098476 206.6539748 188.6763454 163.1089514
 205.1257844 188.6829019 163.1083803 204.5542430 187.2830000 163.1080000
 203.2000000 187.2830000 163.1080000 205.2044269 186.2507992 163.1074242
 202.2930000 188.1870000 160.3130000 201.9219627 188.1866082 161.4464083
 201.9189482 187.5706945 163.1104991 209.1170424 189.5548952 163.9932020
 209.1177372 189.5539623 162.2282715 206.8552267 190.6379011 162.2274328
 206.8541634 190.6379044 163.9923625 207.0201151 188.1324740 163.9879224
 207.0200361 188.1339952 162.2277225 204.7585586 189.2013983 162.2161832
 204.7587875 189.2008719 164.0016810 202.8077631 188.1763881 163.1080000
 211.4260000 178.4210000 176.4150000 212.8757774 185.5222005 177.8411438
 211.3666515 185.4367848 177.7542115 210.8069757 184.5336163 178.8452000
 209.3082477 184.4780210 178.6783451 208.6891405 183.6112373 179.7513042
 207.1828159 183.7431808 179.6767451 206.5650844 182.9420000 178.5280000
 205.0190000 182.9420000 178.5280000 204.4116962 184.3687263 178.5280000
 204.9095752 185.2952788 177.4154628 204.3548467 186.7087891 177.6380727
 204.8623630 187.6722987 176.5700697 204.3104345 189.0834171 176.7908251
 204.8189850 190.0236350 175.6956482 204.2722930 191.4387717 175.8727523
 204.7848685 192.3561607 174.7748112 204.4955855 182.2921111 179.8750708
 204.8144433 183.1100878 181.1194143 204.2723105 182.4704234 182.3938002
 204.7003195 183.3343543 183.5739314 204.1840424 182.8130436 184.9085243
 204.6719724 183.7268103 186.0322741 204.1825094 183.2480682 187.3894483
 204.6703657 184.1590515 188.5033876 204.4641881 182.0713906 177.3616574
 204.8177005 180.5855280 177.2514780 204.4239989 179.6508091 178.3999994
 202.9159551 179.6661187 178.6549279 202.2414240 179.0162166 177.4644070
 200.7330011 179.0869084 177.4730254 200.2528935 178.3913068 176.2015470
 198.7448128 178.3880083 176.1094067 210.9640000 178.6890000 175.4600000
 210.8870455 178.3183397 175.4676543 210.8045611 177.9864972 177.2075043
 213.1709754 185.9236320 178.8168291 213.3111727 184.5202427 177.7514485
 211.0639720 185.0496836 176.7740912 210.9248237 186.4364455 177.8538742
 211.0702239 184.9268512 179.8322884 211.2354698 183.5247144 178.7659043
 209.0513187 184.0927845 177.6915598 208.8948951 185.4960287 178.7493450
 209.0232658 183.9492563 180.7375970 209.0033866 182.5657500 179.6475358
 206.8937068 184.7989578 179.6315596 206.8706052 183.4013389 180.6438530
 206.8853425 181.8989625 178.5773618 206.8793881 183.3444737 177.5602644
 204.6582357 184.8376140 179.4704736 203.3233203 184.2546983 178.4742458
 204.5890002 184.9427926 176.4294638 206.0027742 185.3515952 177.4069588
 204.6589731 187.0685757 178.6291851 203.2585120 186.6792478 177.6256421
 204.5679548 187.3107877 175.5802164 205.9585354 187.7027619 176.5945471
 204.6160479 189.4521915 177.7645017 203.2137292 189.0587877 176.7752742
 204.5225892 189.6368654 174.7143420 205.9150986 190.0482493 175.7173350
 204.5727766 191.8377647 176.8487785 203.1770217 191.4223078 175.8493739
 205.8779208 192.4194951 174.7953196 204.3820697 193.3648999 174.9033585
 204.4818333 191.9918719 173.7873785 204.9500542 181.3009619 179.9561353
 203.4076585 182.1815741 179.7657896 204.3606181 184.1020562 181.0631875
 205.8958946 183.2407973 181.2152741 204.6577371 181.4480534 182.5070741
 203.1774861 182.4060040 182.3465076 204.3375385 184.3593520 183.4244737
 205.7965863 183.3854758 183.6041921 204.5456746 181.7888178 185.0748960
 203.0909449 182.7811222 184.8988867 204.3171845 184.7502743 185.8536315
 205.7674190 183.7628191 186.0291142 204.5367463 182.2271405 187.5771609
 203.0850939 183.2163802 187.4036289 205.7653060 184.1916533 188.5301465
 204.3169238 183.7982630 189.4742081 204.3007895 185.1804462 188.3635654
 204.8770187 182.5022503 176.4453470 203.3789227 182.2232412 177.3449758
 205.8557693 180.4389571 176.9492213 204.3300396 180.2329919 176.3368611
 204.9890450 179.8437473 179.3148266 204.7267210 178.6281249 178.1314306
 202.5415027 180.6894618 178.7999114 202.6848803 179.1206479 179.5764419
 202.5713367 177.9711193 177.4087990 202.5609557 179.4947440 176.5367341
 200.4082828 180.1370481 177.4753643 200.3294417 178.6079961 178.3677257
 200.6241578 177.3596438 176.1843392 200.6697045 178.8921868 175.3187974
 198.3108941 177.8901213 176.9805216 198.4301443 177.8560585 175.2085859
 198.3631053 179.4123538 176.0613582 212.8950000 175.6220000 170.8490000
 202.4800000 187.5860000 180.1460000 208.7478435 190.0892258 181.0848018
 207.2186208 190.0983423 181.0848476 206.6539748 188.6763454 181.0839514
 205.1257844 188.6829019 181.0833803 204.5542430 187.2830000 181.0830000
 203.2000000 187.2830000 181.0830000 205.2044269 186.2507992 181.0824242
 202.2930000 188.1870000 178.2880000 201.9219627 188.1866082 179.4214083
 201.9189482 187.5706945 181.0854991 209.1170424 189.5548952 181.9682020
 209.1177372 189.5539623 180.2032715 206.8552267 190.6379011 180.2024328
 206.8541634 190.6379044 181.9673625 207.0201151 188.1324740 181.9629224
 207.0200361 188.1339952 180.2027225 204.7585586 189.2013983 180.1911832
 204.7587875 189.2008719 181.9766810 202.8077631 188.1763881 181.0830000
 150.0000000 150.0000000 150.0000000  90.0000000  90.0000000  90.0000000
