default_name
 32000
  79.4510000  73.8360000  76.0550000  77.3970000  74.9830000  74.9390000
  77.5079214  76.2161885  75.8339740  76.6328707  73.8978749  75.6837234
  82.0128790  73.3055784  73.4027728  81.4462276  73.4250000  74.8280000
  80.0290000  73.4250000  74.8280000  80.1500000  72.4530000  74.8590000
  79.6251057  72.8761082  75.5552381  79.2313487  73.6854789  77.1137628
  78.5424599  76.5813217  75.7907677  77.2503039  75.9275211  76.8580313
  76.8504407  76.9991457  75.4582770  77.0399448  72.9240218  75.3907150
  75.5775256  73.9522270  75.4090774  76.7625857  74.0585068  76.7576063
  81.6219904  74.1184292  72.7799391  83.1061579  73.3623141  73.4247570
  81.7953253  74.3547113  75.2863684  81.7917374  72.6044533  75.4655830
  79.7246078  74.3565210  74.8280000  81.0000000  71.0000000  75.0000000
  77.5190000  76.6200000  83.7970000  77.9570000  76.2980000  82.4790000
  79.4736870  76.4310422  82.4110128  80.0798325  75.5304892  83.3352661
  76.5490000  76.5030000  83.7770000  77.4771500  76.9810745  81.7719185
  77.6484998  75.2698257  82.2659032  79.7897786  77.4439699  82.6820657
  79.8418866  76.1980970  81.4084997  79.6452520  75.7153657  84.1908065
  79.4510000  73.8360000  89.2200000  77.3970000  74.9830000  88.1040000
  77.5079214  76.2161885  88.9989740  76.6328707  73.8978749  88.8487234
  82.0128790  73.3055784  86.5677728  81.4462276  73.4250000  87.9930000
  80.0290000  73.4250000  87.9930000  80.1500000  72.4530000  88.0240000
  79.6251057  72.8761082  88.7202381  79.2313487  73.6854789  90.2787628
  78.5424599  76.5813217  88.9557677  77.2503039  75.9275211  90.0230313
  76.8504407  76.9991457  88.6232770  77.0399448  72.9240218  88.5557150
  75.5775256  73.9522270  88.5740774  76.7625857  74.0585068  89.9226063
  81.6219904  74.1184292  85.9449391  83.1061579  73.3623141  86.5897570
  81.7953253  74.3547113  88.4513684  81.7917374  72.6044533  88.6305830
  79.7246078  74.3565210  87.9930000  81.0000000  71.0000000  88.1650000
  77.5190000  76.6200000  96.9620000  77.9570000  76.2980000  95.6440000
  79.4736870  76.4310422  95.5760128  80.0798325  75.5304892  96.5002661
  76.5490000  76.5030000  96.9420000  77.4771500  76.9810745  94.9369185
  77.6484998  75.2698257  95.4309032  79.7897786  77.4439699  95.8470657
  79.8418866  76.1980970  94.5734997  79.6452520  75.7153657  97.3558065
  79.4510000  73.8360000 102.3850000  77.3970000  74.9830000 101.2690000
  77.5079214  76.2161885 102.1639740  76.6328707  73.8978749 102.0137234
  82.0128790  73.3055784  99.7327728  81.4462276  73.4250000 101.1580000
  80.0290000  73.4250000 101.1580000  80.1500000  72.4530000 101.1890000
  79.6251057  72.8761082 101.8852381  79.2313487  73.6854789 103.4437628
  78.5424599  76.5813217 102.1207677  77.2503039  75.9275211 103.1880313
  76.8504407  76.9991457 101.7882770  77.0399448  72.9240218 101.7207150
  75.5775256  73.9522270 101.7390774  76.7625857  74.0585068 103.0876063
  81.6219904  74.1184292  99.1099391  83.1061579  73.3623141  99.7547570
  81.7953253  74.3547113 101.6163684  81.7917374  72.6044533 101.7955830
  79.7246078  74.3565210 101.1580000  81.0000000  71.0000000 101.3300000
  77.5190000  76.6200000 110.1270000  77.9570000  76.2980000 108.8090000
  79.4736870  76.4310422 108.7410128  80.0798325  75.5304892 109.6652661
  76.5490000  76.5030000 110.1070000  77.4771500  76.9810745 108.1019185
  77.6484998  75.2698257 108.5959032  79.7897786  77.4439699 109.0120657
  79.8418866  76.1980970 107.7384997  79.6452520  75.7153657 110.5208065
  79.4510000  73.8360000 115.5510000  77.3970000  74.9830000 114.4350000
  77.5079214  76.2161885 115.3299740  76.6328707  73.8978749 115.1797234
  82.0128790  73.3055784 112.8987728  81.4462276  73.4250000 114.3240000
  80.0290000  73.4250000 114.3240000  80.1500000  72.4530000 114.3550000
  79.6251057  72.8761082 115.0512381  79.2313487  73.6854789 116.6097628
  78.5424599  76.5813217 115.2867677  77.2503039  75.9275211 116.3540313
  76.8504407  76.9991457 114.9542770  77.0399448  72.9240218 114.8867150
  75.5775256  73.9522270 114.9050774  76.7625857  74.0585068 116.2536063
  81.6219904  74.1184292 112.2759391  83.1061579  73.3623141 112.9207570
  81.7953253  74.3547113 114.7823684  81.7917374  72.6044533 114.9615830
  79.7246078  74.3565210 114.3240000  81.0000000  71.0000000 114.4960000
  77.5190000  76.6200000 123.2930000  77.9570000  76.2980000 121.9750000
  79.4736870  76.4310422 121.9070128  80.0798325  75.5304892 122.8312661
  76.5490000  76.5030000 123.2730000  77.4771500  76.9810745 121.2679185
  77.6484998  75.2698257 121.7619032  79.7897786  77.4439699 122.1780657
  79.8418866  76.1980970 120.9044997  79.6452520  75.7153657 123.6868065
  79.4510000  73.8360000 128.7160000  77.3970000  74.9830000 127.6000000
  77.5079214  76.2161885 128.4949740  76.6328707  73.8978749 128.3447234
  82.0128790  73.3055784 126.0637728  81.4462276  73.4250000 127.4890000
  80.0290000  73.4250000 127.4890000  80.1500000  72.4530000 127.5200000
  79.6251057  72.8761082 128.2162381  79.2313487  73.6854789 129.7747628
  78.5424599  76.5813217 128.4517677  77.2503039  75.9275211 129.5190313
  76.8504407  76.9991457 128.1192770  77.0399448  72.9240218 128.0517150
  75.5775256  73.9522270 128.0700774  76.7625857  74.0585068 129.4186063
  81.6219904  74.1184292 125.4409391  83.1061579  73.3623141 126.0857570
  81.7953253  74.3547113 127.9473684  81.7917374  72.6044533 128.1265830
  79.7246078  74.3565210 127.4890000  81.0000000  71.0000000 127.6610000
  77.5190000  76.6200000 136.4580000  77.9570000  76.2980000 135.1400000
  79.4736870  76.4310422 135.0720128  80.0798325  75.5304892 135.9962661
  76.5490000  76.5030000 136.4380000  77.4771500  76.9810745 134.4329185
  77.6484998  75.2698257 134.9269032  79.7897786  77.4439699 135.3430657
  79.8418866  76.1980970 134.0694997  79.6452520  75.7153657 136.8518065
  79.4510000  73.8360000 141.8810000  77.3970000  74.9830000 140.7650000
  77.5079214  76.2161885 141.6599740  76.6328707  73.8978749 141.5097234
  82.0128790  73.3055784 139.2287728  81.4462276  73.4250000 140.6540000
  80.0290000  73.4250000 140.6540000  80.1500000  72.4530000 140.6850000
  79.6251057  72.8761082 141.3812381  79.2313487  73.6854789 142.9397628
  78.5424599  76.5813217 141.6167677  77.2503039  75.9275211 142.6840313
  76.8504407  76.9991457 141.2842770  77.0399448  72.9240218 141.2167150
  75.5775256  73.9522270 141.2350774  76.7625857  74.0585068 142.5836063
  81.6219904  74.1184292 138.6059391  83.1061579  73.3623141 139.2507570
  81.7953253  74.3547113 141.1123684  81.7917374  72.6044533 141.2915830
  79.7246078  74.3565210 140.6540000  81.0000000  71.0000000 140.8260000
  77.5190000  76.6200000 149.6230000  77.9570000  76.2980000 148.3050000
  79.4736870  76.4310422 148.2370128  80.0798325  75.5304892 149.1612661
  76.5490000  76.5030000 149.6030000  77.4771500  76.9810745 147.5979185
  77.6484998  75.2698257 148.0919032  79.7897786  77.4439699 148.5080657
  79.8418866  76.1980970 147.2344997  79.6452520  75.7153657 150.0168065
  79.4510000  73.8360000 155.0460000  77.3970000  74.9830000 153.9300000
  77.5079214  76.2161885 154.8249740  76.6328707  73.8978749 154.6747234
  82.0128790  73.3055784 152.3937728  81.4462276  73.4250000 153.8190000
  80.0290000  73.4250000 153.8190000  80.1500000  72.4530000 153.8500000
  79.6251057  72.8761082 154.5462381  79.2313487  73.6854789 156.1047628
  78.5424599  76.5813217 154.7817677  77.2503039  75.9275211 155.8490313
  76.8504407  76.9991457 154.4492770  77.0399448  72.9240218 154.3817150
  75.5775256  73.9522270 154.4000774  76.7625857  74.0585068 155.7486063
  81.6219904  74.1184292 151.7709391  83.1061579  73.3623141 152.4157570
  81.7953253  74.3547113 154.2773684  81.7917374  72.6044533 154.4565830
  79.7246078  74.3565210 153.8190000  81.0000000  71.0000000 153.9910000
  77.5190000  76.6200000 162.7880000  77.9570000  76.2980000 161.4700000
  79.4736870  76.4310422 161.4020128  80.0798325  75.5304892 162.3262661
  76.5490000  76.5030000 162.7680000  77.4771500  76.9810745 160.7629185
  77.6484998  75.2698257 161.2569032  79.7897786  77.4439699 161.6730657
  79.8418866  76.1980970 160.3994997  79.6452520  75.7153657 163.1818065
  79.4510000  73.8360000 168.2110000  77.3970000  74.9830000 167.0950000
  77.5079214  76.2161885 167.9899740  76.6328707  73.8978749 167.8397234
  82.0128790  73.3055784 165.5587728  81.4462276  73.4250000 166.9840000
  80.0290000  73.4250000 166.9840000  80.1500000  72.4530000 167.0150000
  79.6251057  72.8761082 167.7112381  79.2313487  73.6854789 169.2697628
  78.5424599  76.5813217 167.9467677  77.2503039  75.9275211 169.0140313
  76.8504407  76.9991457 167.6142770  77.0399448  72.9240218 167.5467150
  75.5775256  73.9522270 167.5650774  76.7625857  74.0585068 168.9136063
  81.6219904  74.1184292 164.9359391  83.1061579  73.3623141 165.5807570
  81.7953253  74.3547113 167.4423684  81.7917374  72.6044533 167.6215830
  79.7246078  74.3565210 166.9840000  81.0000000  71.0000000 167.1560000
  77.5190000  76.6200000 175.9530000  77.9570000  76.2980000 174.6350000
  79.4736870  76.4310422 174.5670128  80.0798325  75.5304892 175.4912661
  76.5490000  76.5030000 175.9330000  77.4771500  76.9810745 173.9279185
  77.6484998  75.2698257 174.4219032  79.7897786  77.4439699 174.8380657
  79.8418866  76.1980970 173.5644997  79.6452520  75.7153657 176.3468065
  79.4510000  73.8360000 181.3770000  77.3970000  74.9830000 180.2610000
  77.5079214  76.2161885 181.1559740  76.6328707  73.8978749 181.0057234
  82.0128790  73.3055784 178.7247728  81.4462276  73.4250000 180.1500000
  80.0290000  73.4250000 180.1500000  80.1500000  72.4530000 180.1810000
  79.6251057  72.8761082 180.8772381  79.2313487  73.6854789 182.4357628
  78.5424599  76.5813217 181.1127677  77.2503039  75.9275211 182.1800313
  76.8504407  76.9991457 180.7802770  77.0399448  72.9240218 180.7127150
  75.5775256  73.9522270 180.7310774  76.7625857  74.0585068 182.0796063
  81.6219904  74.1184292 178.1019391  83.1061579  73.3623141 178.7467570
  81.7953253  74.3547113 180.6083684  81.7917374  72.6044533 180.7875830
  79.7246078  74.3565210 180.1500000  81.0000000  71.0000000 180.3220000
  77.5190000  76.6200000 189.1190000  77.9570000  76.2980000 187.8010000
  79.4736870  76.4310422 187.7330128  80.0798325  75.5304892 188.6572661
  76.5490000  76.5030000 189.0990000  77.4771500  76.9810745 187.0939185
  77.6484998  75.2698257 187.5879032  79.7897786  77.4439699 188.0040657
  79.8418866  76.1980970 186.7304997  79.6452520  75.7153657 189.5128065
  79.4510000  73.8360000 194.5420000  77.3970000  74.9830000 193.4260000
  77.5079214  76.2161885 194.3209740  76.6328707  73.8978749 194.1707234
  82.0128790  73.3055784 191.8897728  81.4462276  73.4250000 193.3150000
  80.0290000  73.4250000 193.3150000  80.1500000  72.4530000 193.3460000
  79.6251057  72.8761082 194.0422381  79.2313487  73.6854789 195.6007628
  78.5424599  76.5813217 194.2777677  77.2503039  75.9275211 195.3450313
  76.8504407  76.9991457 193.9452770  77.0399448  72.9240218 193.8777150
  75.5775256  73.9522270 193.8960774  76.7625857  74.0585068 195.2446063
  81.6219904  74.1184292 191.2669391  83.1061579  73.3623141 191.9117570
  81.7953253  74.3547113 193.7733684  81.7917374  72.6044533 193.9525830
  79.7246078  74.3565210 193.3150000  81.0000000  71.0000000 193.4870000
  77.5190000  76.6200000 202.2840000  77.9570000  76.2980000 200.9660000
  79.4736870  76.4310422 200.8980128  80.0798325  75.5304892 201.8222661
  76.5490000  76.5030000 202.2640000  77.4771500  76.9810745 200.2589185
  77.6484998  75.2698257 200.7529032  79.7897786  77.4439699 201.1690657
  79.8418866  76.1980970 199.8954997  79.6452520  75.7153657 202.6778065
  79.4510000  81.1520000  76.0550000  77.3970000  82.2990000  74.9390000
  77.5079214  83.5321885  75.8339740  76.6328707  81.2138749  75.6837234
  82.0128790  80.6215784  73.4027728  81.4462276  80.7410000  74.8280000
  80.0290000  80.7410000  74.8280000  80.1500000  79.7690000  74.8590000
  79.6251057  80.1921082  75.5552381  79.2313487  81.0014789  77.1137628
  78.5424599  83.8973217  75.7907677  77.2503039  83.2435211  76.8580313
  76.8504407  84.3151457  75.4582770  77.0399448  80.2400218  75.3907150
  75.5775256  81.2682270  75.4090774  76.7625857  81.3745068  76.7576063
  81.6219904  81.4344292  72.7799391  83.1061579  80.6783141  73.4247570
  81.7953253  81.6707113  75.2863684  81.7917374  79.9204533  75.4655830
  79.7246078  81.6725210  74.8280000  81.0000000  78.3160000  75.0000000
  77.5190000  83.9360000  83.7970000  77.9570000  83.6140000  82.4790000
  79.4736870  83.7470422  82.4110128  80.0798325  82.8464892  83.3352661
  76.5490000  83.8190000  83.7770000  77.4771500  84.2970745  81.7719185
  77.6484998  82.5858257  82.2659032  79.7897786  84.7599699  82.6820657
  79.8418866  83.5140970  81.4084997  79.6452520  83.0313657  84.1908065
  79.4510000  81.1520000  89.2200000  77.3970000  82.2990000  88.1040000
  77.5079214  83.5321885  88.9989740  76.6328707  81.2138749  88.8487234
  82.0128790  80.6215784  86.5677728  81.4462276  80.7410000  87.9930000
  80.0290000  80.7410000  87.9930000  80.1500000  79.7690000  88.0240000
  79.6251057  80.1921082  88.7202381  79.2313487  81.0014789  90.2787628
  78.5424599  83.8973217  88.9557677  77.2503039  83.2435211  90.0230313
  76.8504407  84.3151457  88.6232770  77.0399448  80.2400218  88.5557150
  75.5775256  81.2682270  88.5740774  76.7625857  81.3745068  89.9226063
  81.6219904  81.4344292  85.9449391  83.1061579  80.6783141  86.5897570
  81.7953253  81.6707113  88.4513684  81.7917374  79.9204533  88.6305830
  79.7246078  81.6725210  87.9930000  81.0000000  78.3160000  88.1650000
  77.5190000  83.9360000  96.9620000  77.9570000  83.6140000  95.6440000
  79.4736870  83.7470422  95.5760128  80.0798325  82.8464892  96.5002661
  76.5490000  83.8190000  96.9420000  77.4771500  84.2970745  94.9369185
  77.6484998  82.5858257  95.4309032  79.7897786  84.7599699  95.8470657
  79.8418866  83.5140970  94.5734997  79.6452520  83.0313657  97.3558065
  79.4510000  81.1520000 102.3850000  77.3970000  82.2990000 101.2690000
  77.5079214  83.5321885 102.1639740  76.6328707  81.2138749 102.0137234
  82.0128790  80.6215784  99.7327728  81.4462276  80.7410000 101.1580000
  80.0290000  80.7410000 101.1580000  80.1500000  79.7690000 101.1890000
  79.6251057  80.1921082 101.8852381  79.2313487  81.0014789 103.4437628
  78.5424599  83.8973217 102.1207677  77.2503039  83.2435211 103.1880313
  76.8504407  84.3151457 101.7882770  77.0399448  80.2400218 101.7207150
  75.5775256  81.2682270 101.7390774  76.7625857  81.3745068 103.0876063
  81.6219904  81.4344292  99.1099391  83.1061579  80.6783141  99.7547570
  81.7953253  81.6707113 101.6163684  81.7917374  79.9204533 101.7955830
  79.7246078  81.6725210 101.1580000  81.0000000  78.3160000 101.3300000
  77.5190000  83.9360000 110.1270000  77.9570000  83.6140000 108.8090000
  79.4736870  83.7470422 108.7410128  80.0798325  82.8464892 109.6652661
  76.5490000  83.8190000 110.1070000  77.4771500  84.2970745 108.1019185
  77.6484998  82.5858257 108.5959032  79.7897786  84.7599699 109.0120657
  79.8418866  83.5140970 107.7384997  79.6452520  83.0313657 110.5208065
  79.4510000  81.1520000 115.5510000  77.3970000  82.2990000 114.4350000
  77.5079214  83.5321885 115.3299740  76.6328707  81.2138749 115.1797234
  82.0128790  80.6215784 112.8987728  81.4462276  80.7410000 114.3240000
  80.0290000  80.7410000 114.3240000  80.1500000  79.7690000 114.3550000
  79.6251057  80.1921082 115.0512381  79.2313487  81.0014789 116.6097628
  78.5424599  83.8973217 115.2867677  77.2503039  83.2435211 116.3540313
  76.8504407  84.3151457 114.9542770  77.0399448  80.2400218 114.8867150
  75.5775256  81.2682270 114.9050774  76.7625857  81.3745068 116.2536063
  81.6219904  81.4344292 112.2759391  83.1061579  80.6783141 112.9207570
  81.7953253  81.6707113 114.7823684  81.7917374  79.9204533 114.9615830
  79.7246078  81.6725210 114.3240000  81.0000000  78.3160000 114.4960000
  77.5190000  83.9360000 123.2930000  77.9570000  83.6140000 121.9750000
  79.4736870  83.7470422 121.9070128  80.0798325  82.8464892 122.8312661
  76.5490000  83.8190000 123.2730000  77.4771500  84.2970745 121.2679185
  77.6484998  82.5858257 121.7619032  79.7897786  84.7599699 122.1780657
  79.8418866  83.5140970 120.9044997  79.6452520  83.0313657 123.6868065
  79.4510000  81.1520000 128.7160000  77.3970000  82.2990000 127.6000000
  77.5079214  83.5321885 128.4949740  76.6328707  81.2138749 128.3447234
  82.0128790  80.6215784 126.0637728  81.4462276  80.7410000 127.4890000
  80.0290000  80.7410000 127.4890000  80.1500000  79.7690000 127.5200000
  79.6251057  80.1921082 128.2162381  79.2313487  81.0014789 129.7747628
  78.5424599  83.8973217 128.4517677  77.2503039  83.2435211 129.5190313
  76.8504407  84.3151457 128.1192770  77.0399448  80.2400218 128.0517150
  75.5775256  81.2682270 128.0700774  76.7625857  81.3745068 129.4186063
  81.6219904  81.4344292 125.4409391  83.1061579  80.6783141 126.0857570
  81.7953253  81.6707113 127.9473684  81.7917374  79.9204533 128.1265830
  79.7246078  81.6725210 127.4890000  81.0000000  78.3160000 127.6610000
  77.5190000  83.9360000 136.4580000  77.9570000  83.6140000 135.1400000
  79.4736870  83.7470422 135.0720128  80.0798325  82.8464892 135.9962661
  76.5490000  83.8190000 136.4380000  77.4771500  84.2970745 134.4329185
  77.6484998  82.5858257 134.9269032  79.7897786  84.7599699 135.3430657
  79.8418866  83.5140970 134.0694997  79.6452520  83.0313657 136.8518065
  79.4510000  81.1520000 141.8810000  77.3970000  82.2990000 140.7650000
  77.5079214  83.5321885 141.6599740  76.6328707  81.2138749 141.5097234
  82.0128790  80.6215784 139.2287728  81.4462276  80.7410000 140.6540000
  80.0290000  80.7410000 140.6540000  80.1500000  79.7690000 140.6850000
  79.6251057  80.1921082 141.3812381  79.2313487  81.0014789 142.9397628
  78.5424599  83.8973217 141.6167677  77.2503039  83.2435211 142.6840313
  76.8504407  84.3151457 141.2842770  77.0399448  80.2400218 141.2167150
  75.5775256  81.2682270 141.2350774  76.7625857  81.3745068 142.5836063
  81.6219904  81.4344292 138.6059391  83.1061579  80.6783141 139.2507570
  81.7953253  81.6707113 141.1123684  81.7917374  79.9204533 141.2915830
  79.7246078  81.6725210 140.6540000  81.0000000  78.3160000 140.8260000
  77.5190000  83.9360000 149.6230000  77.9570000  83.6140000 148.3050000
  79.4736870  83.7470422 148.2370128  80.0798325  82.8464892 149.1612661
  76.5490000  83.8190000 149.6030000  77.4771500  84.2970745 147.5979185
  77.6484998  82.5858257 148.0919032  79.7897786  84.7599699 148.5080657
  79.8418866  83.5140970 147.2344997  79.6452520  83.0313657 150.0168065
  79.4510000  81.1520000 155.0460000  77.3970000  82.2990000 153.9300000
  77.5079214  83.5321885 154.8249740  76.6328707  81.2138749 154.6747234
  82.0128790  80.6215784 152.3937728  81.4462276  80.7410000 153.8190000
  80.0290000  80.7410000 153.8190000  80.1500000  79.7690000 153.8500000
  79.6251057  80.1921082 154.5462381  79.2313487  81.0014789 156.1047628
  78.5424599  83.8973217 154.7817677  77.2503039  83.2435211 155.8490313
  76.8504407  84.3151457 154.4492770  77.0399448  80.2400218 154.3817150
  75.5775256  81.2682270 154.4000774  76.7625857  81.3745068 155.7486063
  81.6219904  81.4344292 151.7709391  83.1061579  80.6783141 152.4157570
  81.7953253  81.6707113 154.2773684  81.7917374  79.9204533 154.4565830
  79.7246078  81.6725210 153.8190000  81.0000000  78.3160000 153.9910000
  77.5190000  83.9360000 162.7880000  77.9570000  83.6140000 161.4700000
  79.4736870  83.7470422 161.4020128  80.0798325  82.8464892 162.3262661
  76.5490000  83.8190000 162.7680000  77.4771500  84.2970745 160.7629185
  77.6484998  82.5858257 161.2569032  79.7897786  84.7599699 161.6730657
  79.8418866  83.5140970 160.3994997  79.6452520  83.0313657 163.1818065
  79.4510000  81.1520000 168.2110000  77.3970000  82.2990000 167.0950000
  77.5079214  83.5321885 167.9899740  76.6328707  81.2138749 167.8397234
  82.0128790  80.6215784 165.5587728  81.4462276  80.7410000 166.9840000
  80.0290000  80.7410000 166.9840000  80.1500000  79.7690000 167.0150000
  79.6251057  80.1921082 167.7112381  79.2313487  81.0014789 169.2697628
  78.5424599  83.8973217 167.9467677  77.2503039  83.2435211 169.0140313
  76.8504407  84.3151457 167.6142770  77.0399448  80.2400218 167.5467150
  75.5775256  81.2682270 167.5650774  76.7625857  81.3745068 168.9136063
  81.6219904  81.4344292 164.9359391  83.1061579  80.6783141 165.5807570
  81.7953253  81.6707113 167.4423684  81.7917374  79.9204533 167.6215830
  79.7246078  81.6725210 166.9840000  81.0000000  78.3160000 167.1560000
  77.5190000  83.9360000 175.9530000  77.9570000  83.6140000 174.6350000
  79.4736870  83.7470422 174.5670128  80.0798325  82.8464892 175.4912661
  76.5490000  83.8190000 175.9330000  77.4771500  84.2970745 173.9279185
  77.6484998  82.5858257 174.4219032  79.7897786  84.7599699 174.8380657
  79.8418866  83.5140970 173.5644997  79.6452520  83.0313657 176.3468065
  79.4510000  81.1520000 181.3770000  77.3970000  82.2990000 180.2610000
  77.5079214  83.5321885 181.1559740  76.6328707  81.2138749 181.0057234
  82.0128790  80.6215784 178.7247728  81.4462276  80.7410000 180.1500000
  80.0290000  80.7410000 180.1500000  80.1500000  79.7690000 180.1810000
  79.6251057  80.1921082 180.8772381  79.2313487  81.0014789 182.4357628
  78.5424599  83.8973217 181.1127677  77.2503039  83.2435211 182.1800313
  76.8504407  84.3151457 180.7802770  77.0399448  80.2400218 180.7127150
  75.5775256  81.2682270 180.7310774  76.7625857  81.3745068 182.0796063
  81.6219904  81.4344292 178.1019391  83.1061579  80.6783141 178.7467570
  81.7953253  81.6707113 180.6083684  81.7917374  79.9204533 180.7875830
  79.7246078  81.6725210 180.1500000  81.0000000  78.3160000 180.3220000
  77.5190000  83.9360000 189.1190000  77.9570000  83.6140000 187.8010000
  79.4736870  83.7470422 187.7330128  80.0798325  82.8464892 188.6572661
  76.5490000  83.8190000 189.0990000  77.4771500  84.2970745 187.0939185
  77.6484998  82.5858257 187.5879032  79.7897786  84.7599699 188.0040657
  79.8418866  83.5140970 186.7304997  79.6452520  83.0313657 189.5128065
  79.4510000  81.1520000 194.5420000  77.3970000  82.2990000 193.4260000
  77.5079214  83.5321885 194.3209740  76.6328707  81.2138749 194.1707234
  82.0128790  80.6215784 191.8897728  81.4462276  80.7410000 193.3150000
  80.0290000  80.7410000 193.3150000  80.1500000  79.7690000 193.3460000
  79.6251057  80.1921082 194.0422381  79.2313487  81.0014789 195.6007628
  78.5424599  83.8973217 194.2777677  77.2503039  83.2435211 195.3450313
  76.8504407  84.3151457 193.9452770  77.0399448  80.2400218 193.8777150
  75.5775256  81.2682270 193.8960774  76.7625857  81.3745068 195.2446063
  81.6219904  81.4344292 191.2669391  83.1061579  80.6783141 191.9117570
  81.7953253  81.6707113 193.7733684  81.7917374  79.9204533 193.9525830
  79.7246078  81.6725210 193.3150000  81.0000000  78.3160000 193.4870000
  77.5190000  83.9360000 202.2840000  77.9570000  83.6140000 200.9660000
  79.4736870  83.7470422 200.8980128  80.0798325  82.8464892 201.8222661
  76.5490000  83.8190000 202.2640000  77.4771500  84.2970745 200.2589185
  77.6484998  82.5858257 200.7529032  79.7897786  84.7599699 201.1690657
  79.8418866  83.5140970 199.8954997  79.6452520  83.0313657 202.6778065
  79.4510000  88.4690000  76.0550000  77.3970000  89.6160000  74.9390000
  77.5079214  90.8491885  75.8339740  76.6328707  88.5308749  75.6837234
  82.0128790  87.9385784  73.4027728  81.4462276  88.0580000  74.8280000
  80.0290000  88.0580000  74.8280000  80.1500000  87.0860000  74.8590000
  79.6251057  87.5091082  75.5552381  79.2313487  88.3184789  77.1137628
  78.5424599  91.2143217  75.7907677  77.2503039  90.5605211  76.8580313
  76.8504407  91.6321457  75.4582770  77.0399448  87.5570218  75.3907150
  75.5775256  88.5852270  75.4090774  76.7625857  88.6915068  76.7576063
  81.6219904  88.7514292  72.7799391  83.1061579  87.9953141  73.4247570
  81.7953253  88.9877113  75.2863684  81.7917374  87.2374533  75.4655830
  79.7246078  88.9895210  74.8280000  81.0000000  85.6330000  75.0000000
  77.5190000  91.2530000  83.7970000  77.9570000  90.9310000  82.4790000
  79.4736870  91.0640422  82.4110128  80.0798325  90.1634892  83.3352661
  76.5490000  91.1360000  83.7770000  77.4771500  91.6140745  81.7719185
  77.6484998  89.9028257  82.2659032  79.7897786  92.0769699  82.6820657
  79.8418866  90.8310970  81.4084997  79.6452520  90.3483657  84.1908065
  79.4510000  88.4690000  89.2200000  77.3970000  89.6160000  88.1040000
  77.5079214  90.8491885  88.9989740  76.6328707  88.5308749  88.8487234
  82.0128790  87.9385784  86.5677728  81.4462276  88.0580000  87.9930000
  80.0290000  88.0580000  87.9930000  80.1500000  87.0860000  88.0240000
  79.6251057  87.5091082  88.7202381  79.2313487  88.3184789  90.2787628
  78.5424599  91.2143217  88.9557677  77.2503039  90.5605211  90.0230313
  76.8504407  91.6321457  88.6232770  77.0399448  87.5570218  88.5557150
  75.5775256  88.5852270  88.5740774  76.7625857  88.6915068  89.9226063
  81.6219904  88.7514292  85.9449391  83.1061579  87.9953141  86.5897570
  81.7953253  88.9877113  88.4513684  81.7917374  87.2374533  88.6305830
  79.7246078  88.9895210  87.9930000  81.0000000  85.6330000  88.1650000
  77.5190000  91.2530000  96.9620000  77.9570000  90.9310000  95.6440000
  79.4736870  91.0640422  95.5760128  80.0798325  90.1634892  96.5002661
  76.5490000  91.1360000  96.9420000  77.4771500  91.6140745  94.9369185
  77.6484998  89.9028257  95.4309032  79.7897786  92.0769699  95.8470657
  79.8418866  90.8310970  94.5734997  79.6452520  90.3483657  97.3558065
  79.4510000  88.4690000 102.3850000  77.3970000  89.6160000 101.2690000
  77.5079214  90.8491885 102.1639740  76.6328707  88.5308749 102.0137234
  82.0128790  87.9385784  99.7327728  81.4462276  88.0580000 101.1580000
  80.0290000  88.0580000 101.1580000  80.1500000  87.0860000 101.1890000
  79.6251057  87.5091082 101.8852381  79.2313487  88.3184789 103.4437628
  78.5424599  91.2143217 102.1207677  77.2503039  90.5605211 103.1880313
  76.8504407  91.6321457 101.7882770  77.0399448  87.5570218 101.7207150
  75.5775256  88.5852270 101.7390774  76.7625857  88.6915068 103.0876063
  81.6219904  88.7514292  99.1099391  83.1061579  87.9953141  99.7547570
  81.7953253  88.9877113 101.6163684  81.7917374  87.2374533 101.7955830
  79.7246078  88.9895210 101.1580000  81.0000000  85.6330000 101.3300000
  77.5190000  91.2530000 110.1270000  77.9570000  90.9310000 108.8090000
  79.4736870  91.0640422 108.7410128  80.0798325  90.1634892 109.6652661
  76.5490000  91.1360000 110.1070000  77.4771500  91.6140745 108.1019185
  77.6484998  89.9028257 108.5959032  79.7897786  92.0769699 109.0120657
  79.8418866  90.8310970 107.7384997  79.6452520  90.3483657 110.5208065
  79.4510000  88.4690000 115.5510000  77.3970000  89.6160000 114.4350000
  77.5079214  90.8491885 115.3299740  76.6328707  88.5308749 115.1797234
  82.0128790  87.9385784 112.8987728  81.4462276  88.0580000 114.3240000
  80.0290000  88.0580000 114.3240000  80.1500000  87.0860000 114.3550000
  79.6251057  87.5091082 115.0512381  79.2313487  88.3184789 116.6097628
  78.5424599  91.2143217 115.2867677  77.2503039  90.5605211 116.3540313
  76.8504407  91.6321457 114.9542770  77.0399448  87.5570218 114.8867150
  75.5775256  88.5852270 114.9050774  76.7625857  88.6915068 116.2536063
  81.6219904  88.7514292 112.2759391  83.1061579  87.9953141 112.9207570
  81.7953253  88.9877113 114.7823684  81.7917374  87.2374533 114.9615830
  79.7246078  88.9895210 114.3240000  81.0000000  85.6330000 114.4960000
  77.5190000  91.2530000 123.2930000  77.9570000  90.9310000 121.9750000
  79.4736870  91.0640422 121.9070128  80.0798325  90.1634892 122.8312661
  76.5490000  91.1360000 123.2730000  77.4771500  91.6140745 121.2679185
  77.6484998  89.9028257 121.7619032  79.7897786  92.0769699 122.1780657
  79.8418866  90.8310970 120.9044997  79.6452520  90.3483657 123.6868065
  79.4510000  88.4690000 128.7160000  77.3970000  89.6160000 127.6000000
  77.5079214  90.8491885 128.4949740  76.6328707  88.5308749 128.3447234
  82.0128790  87.9385784 126.0637728  81.4462276  88.0580000 127.4890000
  80.0290000  88.0580000 127.4890000  80.1500000  87.0860000 127.5200000
  79.6251057  87.5091082 128.2162381  79.2313487  88.3184789 129.7747628
  78.5424599  91.2143217 128.4517677  77.2503039  90.5605211 129.5190313
  76.8504407  91.6321457 128.1192770  77.0399448  87.5570218 128.0517150
  75.5775256  88.5852270 128.0700774  76.7625857  88.6915068 129.4186063
  81.6219904  88.7514292 125.4409391  83.1061579  87.9953141 126.0857570
  81.7953253  88.9877113 127.9473684  81.7917374  87.2374533 128.1265830
  79.7246078  88.9895210 127.4890000  81.0000000  85.6330000 127.6610000
  77.5190000  91.2530000 136.4580000  77.9570000  90.9310000 135.1400000
  79.4736870  91.0640422 135.0720128  80.0798325  90.1634892 135.9962661
  76.5490000  91.1360000 136.4380000  77.4771500  91.6140745 134.4329185
  77.6484998  89.9028257 134.9269032  79.7897786  92.0769699 135.3430657
  79.8418866  90.8310970 134.0694997  79.6452520  90.3483657 136.8518065
  79.4510000  88.4690000 141.8810000  77.3970000  89.6160000 140.7650000
  77.5079214  90.8491885 141.6599740  76.6328707  88.5308749 141.5097234
  82.0128790  87.9385784 139.2287728  81.4462276  88.0580000 140.6540000
  80.0290000  88.0580000 140.6540000  80.1500000  87.0860000 140.6850000
  79.6251057  87.5091082 141.3812381  79.2313487  88.3184789 142.9397628
  78.5424599  91.2143217 141.6167677  77.2503039  90.5605211 142.6840313
  76.8504407  91.6321457 141.2842770  77.0399448  87.5570218 141.2167150
  75.5775256  88.5852270 141.2350774  76.7625857  88.6915068 142.5836063
  81.6219904  88.7514292 138.6059391  83.1061579  87.9953141 139.2507570
  81.7953253  88.9877113 141.1123684  81.7917374  87.2374533 141.2915830
  79.7246078  88.9895210 140.6540000  81.0000000  85.6330000 140.8260000
  77.5190000  91.2530000 149.6230000  77.9570000  90.9310000 148.3050000
  79.4736870  91.0640422 148.2370128  80.0798325  90.1634892 149.1612661
  76.5490000  91.1360000 149.6030000  77.4771500  91.6140745 147.5979185
  77.6484998  89.9028257 148.0919032  79.7897786  92.0769699 148.5080657
  79.8418866  90.8310970 147.2344997  79.6452520  90.3483657 150.0168065
  79.4510000  88.4690000 155.0460000  77.3970000  89.6160000 153.9300000
  77.5079214  90.8491885 154.8249740  76.6328707  88.5308749 154.6747234
  82.0128790  87.9385784 152.3937728  81.4462276  88.0580000 153.8190000
  80.0290000  88.0580000 153.8190000  80.1500000  87.0860000 153.8500000
  79.6251057  87.5091082 154.5462381  79.2313487  88.3184789 156.1047628
  78.5424599  91.2143217 154.7817677  77.2503039  90.5605211 155.8490313
  76.8504407  91.6321457 154.4492770  77.0399448  87.5570218 154.3817150
  75.5775256  88.5852270 154.4000774  76.7625857  88.6915068 155.7486063
  81.6219904  88.7514292 151.7709391  83.1061579  87.9953141 152.4157570
  81.7953253  88.9877113 154.2773684  81.7917374  87.2374533 154.4565830
  79.7246078  88.9895210 153.8190000  81.0000000  85.6330000 153.9910000
  77.5190000  91.2530000 162.7880000  77.9570000  90.9310000 161.4700000
  79.4736870  91.0640422 161.4020128  80.0798325  90.1634892 162.3262661
  76.5490000  91.1360000 162.7680000  77.4771500  91.6140745 160.7629185
  77.6484998  89.9028257 161.2569032  79.7897786  92.0769699 161.6730657
  79.8418866  90.8310970 160.3994997  79.6452520  90.3483657 163.1818065
  79.4510000  88.4690000 168.2110000  77.3970000  89.6160000 167.0950000
  77.5079214  90.8491885 167.9899740  76.6328707  88.5308749 167.8397234
  82.0128790  87.9385784 165.5587728  81.4462276  88.0580000 166.9840000
  80.0290000  88.0580000 166.9840000  80.1500000  87.0860000 167.0150000
  79.6251057  87.5091082 167.7112381  79.2313487  88.3184789 169.2697628
  78.5424599  91.2143217 167.9467677  77.2503039  90.5605211 169.0140313
  76.8504407  91.6321457 167.6142770  77.0399448  87.5570218 167.5467150
  75.5775256  88.5852270 167.5650774  76.7625857  88.6915068 168.9136063
  81.6219904  88.7514292 164.9359391  83.1061579  87.9953141 165.5807570
  81.7953253  88.9877113 167.4423684  81.7917374  87.2374533 167.6215830
  79.7246078  88.9895210 166.9840000  81.0000000  85.6330000 167.1560000
  77.5190000  91.2530000 175.9530000  77.9570000  90.9310000 174.6350000
  79.4736870  91.0640422 174.5670128  80.0798325  90.1634892 175.4912661
  76.5490000  91.1360000 175.9330000  77.4771500  91.6140745 173.9279185
  77.6484998  89.9028257 174.4219032  79.7897786  92.0769699 174.8380657
  79.8418866  90.8310970 173.5644997  79.6452520  90.3483657 176.3468065
  79.4510000  88.4690000 181.3770000  77.3970000  89.6160000 180.2610000
  77.5079214  90.8491885 181.1559740  76.6328707  88.5308749 181.0057234
  82.0128790  87.9385784 178.7247728  81.4462276  88.0580000 180.1500000
  80.0290000  88.0580000 180.1500000  80.1500000  87.0860000 180.1810000
  79.6251057  87.5091082 180.8772381  79.2313487  88.3184789 182.4357628
  78.5424599  91.2143217 181.1127677  77.2503039  90.5605211 182.1800313
  76.8504407  91.6321457 180.7802770  77.0399448  87.5570218 180.7127150
  75.5775256  88.5852270 180.7310774  76.7625857  88.6915068 182.0796063
  81.6219904  88.7514292 178.1019391  83.1061579  87.9953141 178.7467570
  81.7953253  88.9877113 180.6083684  81.7917374  87.2374533 180.7875830
  79.7246078  88.9895210 180.1500000  81.0000000  85.6330000 180.3220000
  77.5190000  91.2530000 189.1190000  77.9570000  90.9310000 187.8010000
  79.4736870  91.0640422 187.7330128  80.0798325  90.1634892 188.6572661
  76.5490000  91.1360000 189.0990000  77.4771500  91.6140745 187.0939185
  77.6484998  89.9028257 187.5879032  79.7897786  92.0769699 188.0040657
  79.8418866  90.8310970 186.7304997  79.6452520  90.3483657 189.5128065
  79.4510000  88.4690000 194.5420000  77.3970000  89.6160000 193.4260000
  77.5079214  90.8491885 194.3209740  76.6328707  88.5308749 194.1707234
  82.0128790  87.9385784 191.8897728  81.4462276  88.0580000 193.3150000
  80.0290000  88.0580000 193.3150000  80.1500000  87.0860000 193.3460000
  79.6251057  87.5091082 194.0422381  79.2313487  88.3184789 195.6007628
  78.5424599  91.2143217 194.2777677  77.2503039  90.5605211 195.3450313
  76.8504407  91.6321457 193.9452770  77.0399448  87.5570218 193.8777150
  75.5775256  88.5852270 193.8960774  76.7625857  88.6915068 195.2446063
  81.6219904  88.7514292 191.2669391  83.1061579  87.9953141 191.9117570
  81.7953253  88.9877113 193.7733684  81.7917374  87.2374533 193.9525830
  79.7246078  88.9895210 193.3150000  81.0000000  85.6330000 193.4870000
  77.5190000  91.2530000 202.2840000  77.9570000  90.9310000 200.9660000
  79.4736870  91.0640422 200.8980128  80.0798325  90.1634892 201.8222661
  76.5490000  91.1360000 202.2640000  77.4771500  91.6140745 200.2589185
  77.6484998  89.9028257 200.7529032  79.7897786  92.0769699 201.1690657
  79.8418866  90.8310970 199.8954997  79.6452520  90.3483657 202.6778065
  79.4510000  95.7850000  76.0550000  77.3970000  96.9320000  74.9390000
  77.5079214  98.1651885  75.8339740  76.6328707  95.8468749  75.6837234
  82.0128790  95.2545784  73.4027728  81.4462276  95.3740000  74.8280000
  80.0290000  95.3740000  74.8280000  80.1500000  94.4020000  74.8590000
  79.6251057  94.8251082  75.5552381  79.2313487  95.6344789  77.1137628
  78.5424599  98.5303217  75.7907677  77.2503039  97.8765211  76.8580313
  76.8504407  98.9481457  75.4582770  77.0399448  94.8730218  75.3907150
  75.5775256  95.9012270  75.4090774  76.7625857  96.0075068  76.7576063
  81.6219904  96.0674292  72.7799391  83.1061579  95.3113141  73.4247570
  81.7953253  96.3037113  75.2863684  81.7917374  94.5534533  75.4655830
  79.7246078  96.3055210  74.8280000  81.0000000  92.9490000  75.0000000
  77.5190000  98.5690000  83.7970000  77.9570000  98.2470000  82.4790000
  79.4736870  98.3800422  82.4110128  80.0798325  97.4794892  83.3352661
  76.5490000  98.4520000  83.7770000  77.4771500  98.9300745  81.7719185
  77.6484998  97.2188257  82.2659032  79.7897786  99.3929699  82.6820657
  79.8418866  98.1470970  81.4084997  79.6452520  97.6643657  84.1908065
  79.4510000  95.7850000  89.2200000  77.3970000  96.9320000  88.1040000
  77.5079214  98.1651885  88.9989740  76.6328707  95.8468749  88.8487234
  82.0128790  95.2545784  86.5677728  81.4462276  95.3740000  87.9930000
  80.0290000  95.3740000  87.9930000  80.1500000  94.4020000  88.0240000
  79.6251057  94.8251082  88.7202381  79.2313487  95.6344789  90.2787628
  78.5424599  98.5303217  88.9557677  77.2503039  97.8765211  90.0230313
  76.8504407  98.9481457  88.6232770  77.0399448  94.8730218  88.5557150
  75.5775256  95.9012270  88.5740774  76.7625857  96.0075068  89.9226063
  81.6219904  96.0674292  85.9449391  83.1061579  95.3113141  86.5897570
  81.7953253  96.3037113  88.4513684  81.7917374  94.5534533  88.6305830
  79.7246078  96.3055210  87.9930000  81.0000000  92.9490000  88.1650000
  77.5190000  98.5690000  96.9620000  77.9570000  98.2470000  95.6440000
  79.4736870  98.3800422  95.5760128  80.0798325  97.4794892  96.5002661
  76.5490000  98.4520000  96.9420000  77.4771500  98.9300745  94.9369185
  77.6484998  97.2188257  95.4309032  79.7897786  99.3929699  95.8470657
  79.8418866  98.1470970  94.5734997  79.6452520  97.6643657  97.3558065
  79.4510000  95.7850000 102.3850000  77.3970000  96.9320000 101.2690000
  77.5079214  98.1651885 102.1639740  76.6328707  95.8468749 102.0137234
  82.0128790  95.2545784  99.7327728  81.4462276  95.3740000 101.1580000
  80.0290000  95.3740000 101.1580000  80.1500000  94.4020000 101.1890000
  79.6251057  94.8251082 101.8852381  79.2313487  95.6344789 103.4437628
  78.5424599  98.5303217 102.1207677  77.2503039  97.8765211 103.1880313
  76.8504407  98.9481457 101.7882770  77.0399448  94.8730218 101.7207150
  75.5775256  95.9012270 101.7390774  76.7625857  96.0075068 103.0876063
  81.6219904  96.0674292  99.1099391  83.1061579  95.3113141  99.7547570
  81.7953253  96.3037113 101.6163684  81.7917374  94.5534533 101.7955830
  79.7246078  96.3055210 101.1580000  81.0000000  92.9490000 101.3300000
  77.5190000  98.5690000 110.1270000  77.9570000  98.2470000 108.8090000
  79.4736870  98.3800422 108.7410128  80.0798325  97.4794892 109.6652661
  76.5490000  98.4520000 110.1070000  77.4771500  98.9300745 108.1019185
  77.6484998  97.2188257 108.5959032  79.7897786  99.3929699 109.0120657
  79.8418866  98.1470970 107.7384997  79.6452520  97.6643657 110.5208065
  79.4510000  95.7850000 115.5510000  77.3970000  96.9320000 114.4350000
  77.5079214  98.1651885 115.3299740  76.6328707  95.8468749 115.1797234
  82.0128790  95.2545784 112.8987728  81.4462276  95.3740000 114.3240000
  80.0290000  95.3740000 114.3240000  80.1500000  94.4020000 114.3550000
  79.6251057  94.8251082 115.0512381  79.2313487  95.6344789 116.6097628
  78.5424599  98.5303217 115.2867677  77.2503039  97.8765211 116.3540313
  76.8504407  98.9481457 114.9542770  77.0399448  94.8730218 114.8867150
  75.5775256  95.9012270 114.9050774  76.7625857  96.0075068 116.2536063
  81.6219904  96.0674292 112.2759391  83.1061579  95.3113141 112.9207570
  81.7953253  96.3037113 114.7823684  81.7917374  94.5534533 114.9615830
  79.7246078  96.3055210 114.3240000  81.0000000  92.9490000 114.4960000
  77.5190000  98.5690000 123.2930000  77.9570000  98.2470000 121.9750000
  79.4736870  98.3800422 121.9070128  80.0798325  97.4794892 122.8312661
  76.5490000  98.4520000 123.2730000  77.4771500  98.9300745 121.2679185
  77.6484998  97.2188257 121.7619032  79.7897786  99.3929699 122.1780657
  79.8418866  98.1470970 120.9044997  79.6452520  97.6643657 123.6868065
  79.4510000  95.7850000 128.7160000  77.3970000  96.9320000 127.6000000
  77.5079214  98.1651885 128.4949740  76.6328707  95.8468749 128.3447234
  82.0128790  95.2545784 126.0637728  81.4462276  95.3740000 127.4890000
  80.0290000  95.3740000 127.4890000  80.1500000  94.4020000 127.5200000
  79.6251057  94.8251082 128.2162381  79.2313487  95.6344789 129.7747628
  78.5424599  98.5303217 128.4517677  77.2503039  97.8765211 129.5190313
  76.8504407  98.9481457 128.1192770  77.0399448  94.8730218 128.0517150
  75.5775256  95.9012270 128.0700774  76.7625857  96.0075068 129.4186063
  81.6219904  96.0674292 125.4409391  83.1061579  95.3113141 126.0857570
  81.7953253  96.3037113 127.9473684  81.7917374  94.5534533 128.1265830
  79.7246078  96.3055210 127.4890000  81.0000000  92.9490000 127.6610000
  77.5190000  98.5690000 136.4580000  77.9570000  98.2470000 135.1400000
  79.4736870  98.3800422 135.0720128  80.0798325  97.4794892 135.9962661
  76.5490000  98.4520000 136.4380000  77.4771500  98.9300745 134.4329185
  77.6484998  97.2188257 134.9269032  79.7897786  99.3929699 135.3430657
  79.8418866  98.1470970 134.0694997  79.6452520  97.6643657 136.8518065
  79.4510000  95.7850000 141.8810000  77.3970000  96.9320000 140.7650000
  77.5079214  98.1651885 141.6599740  76.6328707  95.8468749 141.5097234
  82.0128790  95.2545784 139.2287728  81.4462276  95.3740000 140.6540000
  80.0290000  95.3740000 140.6540000  80.1500000  94.4020000 140.6850000
  79.6251057  94.8251082 141.3812381  79.2313487  95.6344789 142.9397628
  78.5424599  98.5303217 141.6167677  77.2503039  97.8765211 142.6840313
  76.8504407  98.9481457 141.2842770  77.0399448  94.8730218 141.2167150
  75.5775256  95.9012270 141.2350774  76.7625857  96.0075068 142.5836063
  81.6219904  96.0674292 138.6059391  83.1061579  95.3113141 139.2507570
  81.7953253  96.3037113 141.1123684  81.7917374  94.5534533 141.2915830
  79.7246078  96.3055210 140.6540000  81.0000000  92.9490000 140.8260000
  77.5190000  98.5690000 149.6230000  77.9570000  98.2470000 148.3050000
  79.4736870  98.3800422 148.2370128  80.0798325  97.4794892 149.1612661
  76.5490000  98.4520000 149.6030000  77.4771500  98.9300745 147.5979185
  77.6484998  97.2188257 148.0919032  79.7897786  99.3929699 148.5080657
  79.8418866  98.1470970 147.2344997  79.6452520  97.6643657 150.0168065
  79.4510000  95.7850000 155.0460000  77.3970000  96.9320000 153.9300000
  77.5079214  98.1651885 154.8249740  76.6328707  95.8468749 154.6747234
  82.0128790  95.2545784 152.3937728  81.4462276  95.3740000 153.8190000
  80.0290000  95.3740000 153.8190000  80.1500000  94.4020000 153.8500000
  79.6251057  94.8251082 154.5462381  79.2313487  95.6344789 156.1047628
  78.5424599  98.5303217 154.7817677  77.2503039  97.8765211 155.8490313
  76.8504407  98.9481457 154.4492770  77.0399448  94.8730218 154.3817150
  75.5775256  95.9012270 154.4000774  76.7625857  96.0075068 155.7486063
  81.6219904  96.0674292 151.7709391  83.1061579  95.3113141 152.4157570
  81.7953253  96.3037113 154.2773684  81.7917374  94.5534533 154.4565830
  79.7246078  96.3055210 153.8190000  81.0000000  92.9490000 153.9910000
  77.5190000  98.5690000 162.7880000  77.9570000  98.2470000 161.4700000
  79.4736870  98.3800422 161.4020128  80.0798325  97.4794892 162.3262661
  76.5490000  98.4520000 162.7680000  77.4771500  98.9300745 160.7629185
  77.6484998  97.2188257 161.2569032  79.7897786  99.3929699 161.6730657
  79.8418866  98.1470970 160.3994997  79.6452520  97.6643657 163.1818065
  79.4510000  95.7850000 168.2110000  77.3970000  96.9320000 167.0950000
  77.5079214  98.1651885 167.9899740  76.6328707  95.8468749 167.8397234
  82.0128790  95.2545784 165.5587728  81.4462276  95.3740000 166.9840000
  80.0290000  95.3740000 166.9840000  80.1500000  94.4020000 167.0150000
  79.6251057  94.8251082 167.7112381  79.2313487  95.6344789 169.2697628
  78.5424599  98.5303217 167.9467677  77.2503039  97.8765211 169.0140313
  76.8504407  98.9481457 167.6142770  77.0399448  94.8730218 167.5467150
  75.5775256  95.9012270 167.5650774  76.7625857  96.0075068 168.9136063
  81.6219904  96.0674292 164.9359391  83.1061579  95.3113141 165.5807570
  81.7953253  96.3037113 167.4423684  81.7917374  94.5534533 167.6215830
  79.7246078  96.3055210 166.9840000  81.0000000  92.9490000 167.1560000
  77.5190000  98.5690000 175.9530000  77.9570000  98.2470000 174.6350000
  79.4736870  98.3800422 174.5670128  80.0798325  97.4794892 175.4912661
  76.5490000  98.4520000 175.9330000  77.4771500  98.9300745 173.9279185
  77.6484998  97.2188257 174.4219032  79.7897786  99.3929699 174.8380657
  79.8418866  98.1470970 173.5644997  79.6452520  97.6643657 176.3468065
  79.4510000  95.7850000 181.3770000  77.3970000  96.9320000 180.2610000
  77.5079214  98.1651885 181.1559740  76.6328707  95.8468749 181.0057234
  82.0128790  95.2545784 178.7247728  81.4462276  95.3740000 180.1500000
  80.0290000  95.3740000 180.1500000  80.1500000  94.4020000 180.1810000
  79.6251057  94.8251082 180.8772381  79.2313487  95.6344789 182.4357628
  78.5424599  98.5303217 181.1127677  77.2503039  97.8765211 182.1800313
  76.8504407  98.9481457 180.7802770  77.0399448  94.8730218 180.7127150
  75.5775256  95.9012270 180.7310774  76.7625857  96.0075068 182.0796063
  81.6219904  96.0674292 178.1019391  83.1061579  95.3113141 178.7467570
  81.7953253  96.3037113 180.6083684  81.7917374  94.5534533 180.7875830
  79.7246078  96.3055210 180.1500000  81.0000000  92.9490000 180.3220000
  77.5190000  98.5690000 189.1190000  77.9570000  98.2470000 187.8010000
  79.4736870  98.3800422 187.7330128  80.0798325  97.4794892 188.6572661
  76.5490000  98.4520000 189.0990000  77.4771500  98.9300745 187.0939185
  77.6484998  97.2188257 187.5879032  79.7897786  99.3929699 188.0040657
  79.8418866  98.1470970 186.7304997  79.6452520  97.6643657 189.5128065
  79.4510000  95.7850000 194.5420000  77.3970000  96.9320000 193.4260000
  77.5079214  98.1651885 194.3209740  76.6328707  95.8468749 194.1707234
  82.0128790  95.2545784 191.8897728  81.4462276  95.3740000 193.3150000
  80.0290000  95.3740000 193.3150000  80.1500000  94.4020000 193.3460000
  79.6251057  94.8251082 194.0422381  79.2313487  95.6344789 195.6007628
  78.5424599  98.5303217 194.2777677  77.2503039  97.8765211 195.3450313
  76.8504407  98.9481457 193.9452770  77.0399448  94.8730218 193.8777150
  75.5775256  95.9012270 193.8960774  76.7625857  96.0075068 195.2446063
  81.6219904  96.0674292 191.2669391  83.1061579  95.3113141 191.9117570
  81.7953253  96.3037113 193.7733684  81.7917374  94.5534533 193.9525830
  79.7246078  96.3055210 193.3150000  81.0000000  92.9490000 193.4870000
  77.5190000  98.5690000 202.2840000  77.9570000  98.2470000 200.9660000
  79.4736870  98.3800422 200.8980128  80.0798325  97.4794892 201.8222661
  76.5490000  98.4520000 202.2640000  77.4771500  98.9300745 200.2589185
  77.6484998  97.2188257 200.7529032  79.7897786  99.3929699 201.1690657
  79.8418866  98.1470970 199.8954997  79.6452520  97.6643657 202.6778065
  79.4510000 103.1020000  76.0550000  77.3970000 104.2490000  74.9390000
  77.5079214 105.4821885  75.8339740  76.6328707 103.1638749  75.6837234
  82.0128790 102.5715784  73.4027728  81.4462276 102.6910000  74.8280000
  80.0290000 102.6910000  74.8280000  80.1500000 101.7190000  74.8590000
  79.6251057 102.1421082  75.5552381  79.2313487 102.9514789  77.1137628
  78.5424599 105.8473217  75.7907677  77.2503039 105.1935211  76.8580313
  76.8504407 106.2651457  75.4582770  77.0399448 102.1900218  75.3907150
  75.5775256 103.2182270  75.4090774  76.7625857 103.3245068  76.7576063
  81.6219904 103.3844292  72.7799391  83.1061579 102.6283141  73.4247570
  81.7953253 103.6207113  75.2863684  81.7917374 101.8704533  75.4655830
  79.7246078 103.6225210  74.8280000  81.0000000 100.2660000  75.0000000
  77.5190000 105.8860000  83.7970000  77.9570000 105.5640000  82.4790000
  79.4736870 105.6970422  82.4110128  80.0798325 104.7964892  83.3352661
  76.5490000 105.7690000  83.7770000  77.4771500 106.2470745  81.7719185
  77.6484998 104.5358257  82.2659032  79.7897786 106.7099699  82.6820657
  79.8418866 105.4640970  81.4084997  79.6452520 104.9813657  84.1908065
  79.4510000 103.1020000  89.2200000  77.3970000 104.2490000  88.1040000
  77.5079214 105.4821885  88.9989740  76.6328707 103.1638749  88.8487234
  82.0128790 102.5715784  86.5677728  81.4462276 102.6910000  87.9930000
  80.0290000 102.6910000  87.9930000  80.1500000 101.7190000  88.0240000
  79.6251057 102.1421082  88.7202381  79.2313487 102.9514789  90.2787628
  78.5424599 105.8473217  88.9557677  77.2503039 105.1935211  90.0230313
  76.8504407 106.2651457  88.6232770  77.0399448 102.1900218  88.5557150
  75.5775256 103.2182270  88.5740774  76.7625857 103.3245068  89.9226063
  81.6219904 103.3844292  85.9449391  83.1061579 102.6283141  86.5897570
  81.7953253 103.6207113  88.4513684  81.7917374 101.8704533  88.6305830
  79.7246078 103.6225210  87.9930000  81.0000000 100.2660000  88.1650000
  77.5190000 105.8860000  96.9620000  77.9570000 105.5640000  95.6440000
  79.4736870 105.6970422  95.5760128  80.0798325 104.7964892  96.5002661
  76.5490000 105.7690000  96.9420000  77.4771500 106.2470745  94.9369185
  77.6484998 104.5358257  95.4309032  79.7897786 106.7099699  95.8470657
  79.8418866 105.4640970  94.5734997  79.6452520 104.9813657  97.3558065
  79.4510000 103.1020000 102.3850000  77.3970000 104.2490000 101.2690000
  77.5079214 105.4821885 102.1639740  76.6328707 103.1638749 102.0137234
  82.0128790 102.5715784  99.7327728  81.4462276 102.6910000 101.1580000
  80.0290000 102.6910000 101.1580000  80.1500000 101.7190000 101.1890000
  79.6251057 102.1421082 101.8852381  79.2313487 102.9514789 103.4437628
  78.5424599 105.8473217 102.1207677  77.2503039 105.1935211 103.1880313
  76.8504407 106.2651457 101.7882770  77.0399448 102.1900218 101.7207150
  75.5775256 103.2182270 101.7390774  76.7625857 103.3245068 103.0876063
  81.6219904 103.3844292  99.1099391  83.1061579 102.6283141  99.7547570
  81.7953253 103.6207113 101.6163684  81.7917374 101.8704533 101.7955830
  79.7246078 103.6225210 101.1580000  81.0000000 100.2660000 101.3300000
  77.5190000 105.8860000 110.1270000  77.9570000 105.5640000 108.8090000
  79.4736870 105.6970422 108.7410128  80.0798325 104.7964892 109.6652661
  76.5490000 105.7690000 110.1070000  77.4771500 106.2470745 108.1019185
  77.6484998 104.5358257 108.5959032  79.7897786 106.7099699 109.0120657
  79.8418866 105.4640970 107.7384997  79.6452520 104.9813657 110.5208065
  79.4510000 103.1020000 115.5510000  77.3970000 104.2490000 114.4350000
  77.5079214 105.4821885 115.3299740  76.6328707 103.1638749 115.1797234
  82.0128790 102.5715784 112.8987728  81.4462276 102.6910000 114.3240000
  80.0290000 102.6910000 114.3240000  80.1500000 101.7190000 114.3550000
  79.6251057 102.1421082 115.0512381  79.2313487 102.9514789 116.6097628
  78.5424599 105.8473217 115.2867677  77.2503039 105.1935211 116.3540313
  76.8504407 106.2651457 114.9542770  77.0399448 102.1900218 114.8867150
  75.5775256 103.2182270 114.9050774  76.7625857 103.3245068 116.2536063
  81.6219904 103.3844292 112.2759391  83.1061579 102.6283141 112.9207570
  81.7953253 103.6207113 114.7823684  81.7917374 101.8704533 114.9615830
  79.7246078 103.6225210 114.3240000  81.0000000 100.2660000 114.4960000
  77.5190000 105.8860000 123.2930000  77.9570000 105.5640000 121.9750000
  79.4736870 105.6970422 121.9070128  80.0798325 104.7964892 122.8312661
  76.5490000 105.7690000 123.2730000  77.4771500 106.2470745 121.2679185
  77.6484998 104.5358257 121.7619032  79.7897786 106.7099699 122.1780657
  79.8418866 105.4640970 120.9044997  79.6452520 104.9813657 123.6868065
  79.4510000 103.1020000 128.7160000  77.3970000 104.2490000 127.6000000
  77.5079214 105.4821885 128.4949740  76.6328707 103.1638749 128.3447234
  82.0128790 102.5715784 126.0637728  81.4462276 102.6910000 127.4890000
  80.0290000 102.6910000 127.4890000  80.1500000 101.7190000 127.5200000
  79.6251057 102.1421082 128.2162381  79.2313487 102.9514789 129.7747628
  78.5424599 105.8473217 128.4517677  77.2503039 105.1935211 129.5190313
  76.8504407 106.2651457 128.1192770  77.0399448 102.1900218 128.0517150
  75.5775256 103.2182270 128.0700774  76.7625857 103.3245068 129.4186063
  81.6219904 103.3844292 125.4409391  83.1061579 102.6283141 126.0857570
  81.7953253 103.6207113 127.9473684  81.7917374 101.8704533 128.1265830
  79.7246078 103.6225210 127.4890000  81.0000000 100.2660000 127.6610000
  77.5190000 105.8860000 136.4580000  77.9570000 105.5640000 135.1400000
  79.4736870 105.6970422 135.0720128  80.0798325 104.7964892 135.9962661
  76.5490000 105.7690000 136.4380000  77.4771500 106.2470745 134.4329185
  77.6484998 104.5358257 134.9269032  79.7897786 106.7099699 135.3430657
  79.8418866 105.4640970 134.0694997  79.6452520 104.9813657 136.8518065
  79.4510000 103.1020000 141.8810000  77.3970000 104.2490000 140.7650000
  77.5079214 105.4821885 141.6599740  76.6328707 103.1638749 141.5097234
  82.0128790 102.5715784 139.2287728  81.4462276 102.6910000 140.6540000
  80.0290000 102.6910000 140.6540000  80.1500000 101.7190000 140.6850000
  79.6251057 102.1421082 141.3812381  79.2313487 102.9514789 142.9397628
  78.5424599 105.8473217 141.6167677  77.2503039 105.1935211 142.6840313
  76.8504407 106.2651457 141.2842770  77.0399448 102.1900218 141.2167150
  75.5775256 103.2182270 141.2350774  76.7625857 103.3245068 142.5836063
  81.6219904 103.3844292 138.6059391  83.1061579 102.6283141 139.2507570
  81.7953253 103.6207113 141.1123684  81.7917374 101.8704533 141.2915830
  79.7246078 103.6225210 140.6540000  81.0000000 100.2660000 140.8260000
  77.5190000 105.8860000 149.6230000  77.9570000 105.5640000 148.3050000
  79.4736870 105.6970422 148.2370128  80.0798325 104.7964892 149.1612661
  76.5490000 105.7690000 149.6030000  77.4771500 106.2470745 147.5979185
  77.6484998 104.5358257 148.0919032  79.7897786 106.7099699 148.5080657
  79.8418866 105.4640970 147.2344997  79.6452520 104.9813657 150.0168065
  79.4510000 103.1020000 155.0460000  77.3970000 104.2490000 153.9300000
  77.5079214 105.4821885 154.8249740  76.6328707 103.1638749 154.6747234
  82.0128790 102.5715784 152.3937728  81.4462276 102.6910000 153.8190000
  80.0290000 102.6910000 153.8190000  80.1500000 101.7190000 153.8500000
  79.6251057 102.1421082 154.5462381  79.2313487 102.9514789 156.1047628
  78.5424599 105.8473217 154.7817677  77.2503039 105.1935211 155.8490313
  76.8504407 106.2651457 154.4492770  77.0399448 102.1900218 154.3817150
  75.5775256 103.2182270 154.4000774  76.7625857 103.3245068 155.7486063
  81.6219904 103.3844292 151.7709391  83.1061579 102.6283141 152.4157570
  81.7953253 103.6207113 154.2773684  81.7917374 101.8704533 154.4565830
  79.7246078 103.6225210 153.8190000  81.0000000 100.2660000 153.9910000
  77.5190000 105.8860000 162.7880000  77.9570000 105.5640000 161.4700000
  79.4736870 105.6970422 161.4020128  80.0798325 104.7964892 162.3262661
  76.5490000 105.7690000 162.7680000  77.4771500 106.2470745 160.7629185
  77.6484998 104.5358257 161.2569032  79.7897786 106.7099699 161.6730657
  79.8418866 105.4640970 160.3994997  79.6452520 104.9813657 163.1818065
  79.4510000 103.1020000 168.2110000  77.3970000 104.2490000 167.0950000
  77.5079214 105.4821885 167.9899740  76.6328707 103.1638749 167.8397234
  82.0128790 102.5715784 165.5587728  81.4462276 102.6910000 166.9840000
  80.0290000 102.6910000 166.9840000  80.1500000 101.7190000 167.0150000
  79.6251057 102.1421082 167.7112381  79.2313487 102.9514789 169.2697628
  78.5424599 105.8473217 167.9467677  77.2503039 105.1935211 169.0140313
  76.8504407 106.2651457 167.6142770  77.0399448 102.1900218 167.5467150
  75.5775256 103.2182270 167.5650774  76.7625857 103.3245068 168.9136063
  81.6219904 103.3844292 164.9359391  83.1061579 102.6283141 165.5807570
  81.7953253 103.6207113 167.4423684  81.7917374 101.8704533 167.6215830
  79.7246078 103.6225210 166.9840000  81.0000000 100.2660000 167.1560000
  77.5190000 105.8860000 175.9530000  77.9570000 105.5640000 174.6350000
  79.4736870 105.6970422 174.5670128  80.0798325 104.7964892 175.4912661
  76.5490000 105.7690000 175.9330000  77.4771500 106.2470745 173.9279185
  77.6484998 104.5358257 174.4219032  79.7897786 106.7099699 174.8380657
  79.8418866 105.4640970 173.5644997  79.6452520 104.9813657 176.3468065
  79.4510000 103.1020000 181.3770000  77.3970000 104.2490000 180.2610000
  77.5079214 105.4821885 181.1559740  76.6328707 103.1638749 181.0057234
  82.0128790 102.5715784 178.7247728  81.4462276 102.6910000 180.1500000
  80.0290000 102.6910000 180.1500000  80.1500000 101.7190000 180.1810000
  79.6251057 102.1421082 180.8772381  79.2313487 102.9514789 182.4357628
  78.5424599 105.8473217 181.1127677  77.2503039 105.1935211 182.1800313
  76.8504407 106.2651457 180.7802770  77.0399448 102.1900218 180.7127150
  75.5775256 103.2182270 180.7310774  76.7625857 103.3245068 182.0796063
  81.6219904 103.3844292 178.1019391  83.1061579 102.6283141 178.7467570
  81.7953253 103.6207113 180.6083684  81.7917374 101.8704533 180.7875830
  79.7246078 103.6225210 180.1500000  81.0000000 100.2660000 180.3220000
  77.5190000 105.8860000 189.1190000  77.9570000 105.5640000 187.8010000
  79.4736870 105.6970422 187.7330128  80.0798325 104.7964892 188.6572661
  76.5490000 105.7690000 189.0990000  77.4771500 106.2470745 187.0939185
  77.6484998 104.5358257 187.5879032  79.7897786 106.7099699 188.0040657
  79.8418866 105.4640970 186.7304997  79.6452520 104.9813657 189.5128065
  79.4510000 103.1020000 194.5420000  77.3970000 104.2490000 193.4260000
  77.5079214 105.4821885 194.3209740  76.6328707 103.1638749 194.1707234
  82.0128790 102.5715784 191.8897728  81.4462276 102.6910000 193.3150000
  80.0290000 102.6910000 193.3150000  80.1500000 101.7190000 193.3460000
  79.6251057 102.1421082 194.0422381  79.2313487 102.9514789 195.6007628
  78.5424599 105.8473217 194.2777677  77.2503039 105.1935211 195.3450313
  76.8504407 106.2651457 193.9452770  77.0399448 102.1900218 193.8777150
  75.5775256 103.2182270 193.8960774  76.7625857 103.3245068 195.2446063
  81.6219904 103.3844292 191.2669391  83.1061579 102.6283141 191.9117570
  81.7953253 103.6207113 193.7733684  81.7917374 101.8704533 193.9525830
  79.7246078 103.6225210 193.3150000  81.0000000 100.2660000 193.4870000
  77.5190000 105.8860000 202.2840000  77.9570000 105.5640000 200.9660000
  79.4736870 105.6970422 200.8980128  80.0798325 104.7964892 201.8222661
  76.5490000 105.7690000 202.2640000  77.4771500 106.2470745 200.2589185
  77.6484998 104.5358257 200.7529032  79.7897786 106.7099699 201.1690657
  79.8418866 105.4640970 199.8954997  79.6452520 104.9813657 202.6778065
  79.4510000 110.4180000  76.0550000  77.3970000 111.5650000  74.9390000
  77.5079214 112.7981885  75.8339740  76.6328707 110.4798749  75.6837234
  82.0128790 109.8875784  73.4027728  81.4462276 110.0070000  74.8280000
  80.0290000 110.0070000  74.8280000  80.1500000 109.0350000  74.8590000
  79.6251057 109.4581082  75.5552381  79.2313487 110.2674789  77.1137628
  78.5424599 113.1633217  75.7907677  77.2503039 112.5095211  76.8580313
  76.8504407 113.5811457  75.4582770  77.0399448 109.5060218  75.3907150
  75.5775256 110.5342270  75.4090774  76.7625857 110.6405068  76.7576063
  81.6219904 110.7004292  72.7799391  83.1061579 109.9443141  73.4247570
  81.7953253 110.9367113  75.2863684  81.7917374 109.1864533  75.4655830
  79.7246078 110.9385210  74.8280000  81.0000000 107.5820000  75.0000000
  77.5190000 113.2020000  83.7970000  77.9570000 112.8800000  82.4790000
  79.4736870 113.0130422  82.4110128  80.0798325 112.1124892  83.3352661
  76.5490000 113.0850000  83.7770000  77.4771500 113.5630745  81.7719185
  77.6484998 111.8518257  82.2659032  79.7897786 114.0259699  82.6820657
  79.8418866 112.7800970  81.4084997  79.6452520 112.2973657  84.1908065
  79.4510000 110.4180000  89.2200000  77.3970000 111.5650000  88.1040000
  77.5079214 112.7981885  88.9989740  76.6328707 110.4798749  88.8487234
  82.0128790 109.8875784  86.5677728  81.4462276 110.0070000  87.9930000
  80.0290000 110.0070000  87.9930000  80.1500000 109.0350000  88.0240000
  79.6251057 109.4581082  88.7202381  79.2313487 110.2674789  90.2787628
  78.5424599 113.1633217  88.9557677  77.2503039 112.5095211  90.0230313
  76.8504407 113.5811457  88.6232770  77.0399448 109.5060218  88.5557150
  75.5775256 110.5342270  88.5740774  76.7625857 110.6405068  89.9226063
  81.6219904 110.7004292  85.9449391  83.1061579 109.9443141  86.5897570
  81.7953253 110.9367113  88.4513684  81.7917374 109.1864533  88.6305830
  79.7246078 110.9385210  87.9930000  81.0000000 107.5820000  88.1650000
  77.5190000 113.2020000  96.9620000  77.9570000 112.8800000  95.6440000
  79.4736870 113.0130422  95.5760128  80.0798325 112.1124892  96.5002661
  76.5490000 113.0850000  96.9420000  77.4771500 113.5630745  94.9369185
  77.6484998 111.8518257  95.4309032  79.7897786 114.0259699  95.8470657
  79.8418866 112.7800970  94.5734997  79.6452520 112.2973657  97.3558065
  79.4510000 110.4180000 102.3850000  77.3970000 111.5650000 101.2690000
  77.5079214 112.7981885 102.1639740  76.6328707 110.4798749 102.0137234
  82.0128790 109.8875784  99.7327728  81.4462276 110.0070000 101.1580000
  80.0290000 110.0070000 101.1580000  80.1500000 109.0350000 101.1890000
  79.6251057 109.4581082 101.8852381  79.2313487 110.2674789 103.4437628
  78.5424599 113.1633217 102.1207677  77.2503039 112.5095211 103.1880313
  76.8504407 113.5811457 101.7882770  77.0399448 109.5060218 101.7207150
  75.5775256 110.5342270 101.7390774  76.7625857 110.6405068 103.0876063
  81.6219904 110.7004292  99.1099391  83.1061579 109.9443141  99.7547570
  81.7953253 110.9367113 101.6163684  81.7917374 109.1864533 101.7955830
  79.7246078 110.9385210 101.1580000  81.0000000 107.5820000 101.3300000
  77.5190000 113.2020000 110.1270000  77.9570000 112.8800000 108.8090000
  79.4736870 113.0130422 108.7410128  80.0798325 112.1124892 109.6652661
  76.5490000 113.0850000 110.1070000  77.4771500 113.5630745 108.1019185
  77.6484998 111.8518257 108.5959032  79.7897786 114.0259699 109.0120657
  79.8418866 112.7800970 107.7384997  79.6452520 112.2973657 110.5208065
  79.4510000 110.4180000 115.5510000  77.3970000 111.5650000 114.4350000
  77.5079214 112.7981885 115.3299740  76.6328707 110.4798749 115.1797234
  82.0128790 109.8875784 112.8987728  81.4462276 110.0070000 114.3240000
  80.0290000 110.0070000 114.3240000  80.1500000 109.0350000 114.3550000
  79.6251057 109.4581082 115.0512381  79.2313487 110.2674789 116.6097628
  78.5424599 113.1633217 115.2867677  77.2503039 112.5095211 116.3540313
  76.8504407 113.5811457 114.9542770  77.0399448 109.5060218 114.8867150
  75.5775256 110.5342270 114.9050774  76.7625857 110.6405068 116.2536063
  81.6219904 110.7004292 112.2759391  83.1061579 109.9443141 112.9207570
  81.7953253 110.9367113 114.7823684  81.7917374 109.1864533 114.9615830
  79.7246078 110.9385210 114.3240000  81.0000000 107.5820000 114.4960000
  77.5190000 113.2020000 123.2930000  77.9570000 112.8800000 121.9750000
  79.4736870 113.0130422 121.9070128  80.0798325 112.1124892 122.8312661
  76.5490000 113.0850000 123.2730000  77.4771500 113.5630745 121.2679185
  77.6484998 111.8518257 121.7619032  79.7897786 114.0259699 122.1780657
  79.8418866 112.7800970 120.9044997  79.6452520 112.2973657 123.6868065
  79.4510000 110.4180000 128.7160000  77.3970000 111.5650000 127.6000000
  77.5079214 112.7981885 128.4949740  76.6328707 110.4798749 128.3447234
  82.0128790 109.8875784 126.0637728  81.4462276 110.0070000 127.4890000
  80.0290000 110.0070000 127.4890000  80.1500000 109.0350000 127.5200000
  79.6251057 109.4581082 128.2162381  79.2313487 110.2674789 129.7747628
  78.5424599 113.1633217 128.4517677  77.2503039 112.5095211 129.5190313
  76.8504407 113.5811457 128.1192770  77.0399448 109.5060218 128.0517150
  75.5775256 110.5342270 128.0700774  76.7625857 110.6405068 129.4186063
  81.6219904 110.7004292 125.4409391  83.1061579 109.9443141 126.0857570
  81.7953253 110.9367113 127.9473684  81.7917374 109.1864533 128.1265830
  79.7246078 110.9385210 127.4890000  81.0000000 107.5820000 127.6610000
  77.5190000 113.2020000 136.4580000  77.9570000 112.8800000 135.1400000
  79.4736870 113.0130422 135.0720128  80.0798325 112.1124892 135.9962661
  76.5490000 113.0850000 136.4380000  77.4771500 113.5630745 134.4329185
  77.6484998 111.8518257 134.9269032  79.7897786 114.0259699 135.3430657
  79.8418866 112.7800970 134.0694997  79.6452520 112.2973657 136.8518065
  79.4510000 110.4180000 141.8810000  77.3970000 111.5650000 140.7650000
  77.5079214 112.7981885 141.6599740  76.6328707 110.4798749 141.5097234
  82.0128790 109.8875784 139.2287728  81.4462276 110.0070000 140.6540000
  80.0290000 110.0070000 140.6540000  80.1500000 109.0350000 140.6850000
  79.6251057 109.4581082 141.3812381  79.2313487 110.2674789 142.9397628
  78.5424599 113.1633217 141.6167677  77.2503039 112.5095211 142.6840313
  76.8504407 113.5811457 141.2842770  77.0399448 109.5060218 141.2167150
  75.5775256 110.5342270 141.2350774  76.7625857 110.6405068 142.5836063
  81.6219904 110.7004292 138.6059391  83.1061579 109.9443141 139.2507570
  81.7953253 110.9367113 141.1123684  81.7917374 109.1864533 141.2915830
  79.7246078 110.9385210 140.6540000  81.0000000 107.5820000 140.8260000
  77.5190000 113.2020000 149.6230000  77.9570000 112.8800000 148.3050000
  79.4736870 113.0130422 148.2370128  80.0798325 112.1124892 149.1612661
  76.5490000 113.0850000 149.6030000  77.4771500 113.5630745 147.5979185
  77.6484998 111.8518257 148.0919032  79.7897786 114.0259699 148.5080657
  79.8418866 112.7800970 147.2344997  79.6452520 112.2973657 150.0168065
  79.4510000 110.4180000 155.0460000  77.3970000 111.5650000 153.9300000
  77.5079214 112.7981885 154.8249740  76.6328707 110.4798749 154.6747234
  82.0128790 109.8875784 152.3937728  81.4462276 110.0070000 153.8190000
  80.0290000 110.0070000 153.8190000  80.1500000 109.0350000 153.8500000
  79.6251057 109.4581082 154.5462381  79.2313487 110.2674789 156.1047628
  78.5424599 113.1633217 154.7817677  77.2503039 112.5095211 155.8490313
  76.8504407 113.5811457 154.4492770  77.0399448 109.5060218 154.3817150
  75.5775256 110.5342270 154.4000774  76.7625857 110.6405068 155.7486063
  81.6219904 110.7004292 151.7709391  83.1061579 109.9443141 152.4157570
  81.7953253 110.9367113 154.2773684  81.7917374 109.1864533 154.4565830
  79.7246078 110.9385210 153.8190000  81.0000000 107.5820000 153.9910000
  77.5190000 113.2020000 162.7880000  77.9570000 112.8800000 161.4700000
  79.4736870 113.0130422 161.4020128  80.0798325 112.1124892 162.3262661
  76.5490000 113.0850000 162.7680000  77.4771500 113.5630745 160.7629185
  77.6484998 111.8518257 161.2569032  79.7897786 114.0259699 161.6730657
  79.8418866 112.7800970 160.3994997  79.6452520 112.2973657 163.1818065
  79.4510000 110.4180000 168.2110000  77.3970000 111.5650000 167.0950000
  77.5079214 112.7981885 167.9899740  76.6328707 110.4798749 167.8397234
  82.0128790 109.8875784 165.5587728  81.4462276 110.0070000 166.9840000
  80.0290000 110.0070000 166.9840000  80.1500000 109.0350000 167.0150000
  79.6251057 109.4581082 167.7112381  79.2313487 110.2674789 169.2697628
  78.5424599 113.1633217 167.9467677  77.2503039 112.5095211 169.0140313
  76.8504407 113.5811457 167.6142770  77.0399448 109.5060218 167.5467150
  75.5775256 110.5342270 167.5650774  76.7625857 110.6405068 168.9136063
  81.6219904 110.7004292 164.9359391  83.1061579 109.9443141 165.5807570
  81.7953253 110.9367113 167.4423684  81.7917374 109.1864533 167.6215830
  79.7246078 110.9385210 166.9840000  81.0000000 107.5820000 167.1560000
  77.5190000 113.2020000 175.9530000  77.9570000 112.8800000 174.6350000
  79.4736870 113.0130422 174.5670128  80.0798325 112.1124892 175.4912661
  76.5490000 113.0850000 175.9330000  77.4771500 113.5630745 173.9279185
  77.6484998 111.8518257 174.4219032  79.7897786 114.0259699 174.8380657
  79.8418866 112.7800970 173.5644997  79.6452520 112.2973657 176.3468065
  79.4510000 110.4180000 181.3770000  77.3970000 111.5650000 180.2610000
  77.5079214 112.7981885 181.1559740  76.6328707 110.4798749 181.0057234
  82.0128790 109.8875784 178.7247728  81.4462276 110.0070000 180.1500000
  80.0290000 110.0070000 180.1500000  80.1500000 109.0350000 180.1810000
  79.6251057 109.4581082 180.8772381  79.2313487 110.2674789 182.4357628
  78.5424599 113.1633217 181.1127677  77.2503039 112.5095211 182.1800313
  76.8504407 113.5811457 180.7802770  77.0399448 109.5060218 180.7127150
  75.5775256 110.5342270 180.7310774  76.7625857 110.6405068 182.0796063
  81.6219904 110.7004292 178.1019391  83.1061579 109.9443141 178.7467570
  81.7953253 110.9367113 180.6083684  81.7917374 109.1864533 180.7875830
  79.7246078 110.9385210 180.1500000  81.0000000 107.5820000 180.3220000
  77.5190000 113.2020000 189.1190000  77.9570000 112.8800000 187.8010000
  79.4736870 113.0130422 187.7330128  80.0798325 112.1124892 188.6572661
  76.5490000 113.0850000 189.0990000  77.4771500 113.5630745 187.0939185
  77.6484998 111.8518257 187.5879032  79.7897786 114.0259699 188.0040657
  79.8418866 112.7800970 186.7304997  79.6452520 112.2973657 189.5128065
  79.4510000 110.4180000 194.5420000  77.3970000 111.5650000 193.4260000
  77.5079214 112.7981885 194.3209740  76.6328707 110.4798749 194.1707234
  82.0128790 109.8875784 191.8897728  81.4462276 110.0070000 193.3150000
  80.0290000 110.0070000 193.3150000  80.1500000 109.0350000 193.3460000
  79.6251057 109.4581082 194.0422381  79.2313487 110.2674789 195.6007628
  78.5424599 113.1633217 194.2777677  77.2503039 112.5095211 195.3450313
  76.8504407 113.5811457 193.9452770  77.0399448 109.5060218 193.8777150
  75.5775256 110.5342270 193.8960774  76.7625857 110.6405068 195.2446063
  81.6219904 110.7004292 191.2669391  83.1061579 109.9443141 191.9117570
  81.7953253 110.9367113 193.7733684  81.7917374 109.1864533 193.9525830
  79.7246078 110.9385210 193.3150000  81.0000000 107.5820000 193.4870000
  77.5190000 113.2020000 202.2840000  77.9570000 112.8800000 200.9660000
  79.4736870 113.0130422 200.8980128  80.0798325 112.1124892 201.8222661
  76.5490000 113.0850000 202.2640000  77.4771500 113.5630745 200.2589185
  77.6484998 111.8518257 200.7529032  79.7897786 114.0259699 201.1690657
  79.8418866 112.7800970 199.8954997  79.6452520 112.2973657 202.6778065
  79.4510000 117.7340000  76.0550000  77.3970000 118.8810000  74.9390000
  77.5079214 120.1141885  75.8339740  76.6328707 117.7958749  75.6837234
  82.0128790 117.2035784  73.4027728  81.4462276 117.3230000  74.8280000
  80.0290000 117.3230000  74.8280000  80.1500000 116.3510000  74.8590000
  79.6251057 116.7741082  75.5552381  79.2313487 117.5834789  77.1137628
  78.5424599 120.4793217  75.7907677  77.2503039 119.8255211  76.8580313
  76.8504407 120.8971457  75.4582770  77.0399448 116.8220218  75.3907150
  75.5775256 117.8502270  75.4090774  76.7625857 117.9565068  76.7576063
  81.6219904 118.0164292  72.7799391  83.1061579 117.2603141  73.4247570
  81.7953253 118.2527113  75.2863684  81.7917374 116.5024533  75.4655830
  79.7246078 118.2545210  74.8280000  81.0000000 114.8980000  75.0000000
  77.5190000 120.5180000  83.7970000  77.9570000 120.1960000  82.4790000
  79.4736870 120.3290422  82.4110128  80.0798325 119.4284892  83.3352661
  76.5490000 120.4010000  83.7770000  77.4771500 120.8790745  81.7719185
  77.6484998 119.1678257  82.2659032  79.7897786 121.3419699  82.6820657
  79.8418866 120.0960970  81.4084997  79.6452520 119.6133657  84.1908065
  79.4510000 117.7340000  89.2200000  77.3970000 118.8810000  88.1040000
  77.5079214 120.1141885  88.9989740  76.6328707 117.7958749  88.8487234
  82.0128790 117.2035784  86.5677728  81.4462276 117.3230000  87.9930000
  80.0290000 117.3230000  87.9930000  80.1500000 116.3510000  88.0240000
  79.6251057 116.7741082  88.7202381  79.2313487 117.5834789  90.2787628
  78.5424599 120.4793217  88.9557677  77.2503039 119.8255211  90.0230313
  76.8504407 120.8971457  88.6232770  77.0399448 116.8220218  88.5557150
  75.5775256 117.8502270  88.5740774  76.7625857 117.9565068  89.9226063
  81.6219904 118.0164292  85.9449391  83.1061579 117.2603141  86.5897570
  81.7953253 118.2527113  88.4513684  81.7917374 116.5024533  88.6305830
  79.7246078 118.2545210  87.9930000  81.0000000 114.8980000  88.1650000
  77.5190000 120.5180000  96.9620000  77.9570000 120.1960000  95.6440000
  79.4736870 120.3290422  95.5760128  80.0798325 119.4284892  96.5002661
  76.5490000 120.4010000  96.9420000  77.4771500 120.8790745  94.9369185
  77.6484998 119.1678257  95.4309032  79.7897786 121.3419699  95.8470657
  79.8418866 120.0960970  94.5734997  79.6452520 119.6133657  97.3558065
  79.4510000 117.7340000 102.3850000  77.3970000 118.8810000 101.2690000
  77.5079214 120.1141885 102.1639740  76.6328707 117.7958749 102.0137234
  82.0128790 117.2035784  99.7327728  81.4462276 117.3230000 101.1580000
  80.0290000 117.3230000 101.1580000  80.1500000 116.3510000 101.1890000
  79.6251057 116.7741082 101.8852381  79.2313487 117.5834789 103.4437628
  78.5424599 120.4793217 102.1207677  77.2503039 119.8255211 103.1880313
  76.8504407 120.8971457 101.7882770  77.0399448 116.8220218 101.7207150
  75.5775256 117.8502270 101.7390774  76.7625857 117.9565068 103.0876063
  81.6219904 118.0164292  99.1099391  83.1061579 117.2603141  99.7547570
  81.7953253 118.2527113 101.6163684  81.7917374 116.5024533 101.7955830
  79.7246078 118.2545210 101.1580000  81.0000000 114.8980000 101.3300000
  77.5190000 120.5180000 110.1270000  77.9570000 120.1960000 108.8090000
  79.4736870 120.3290422 108.7410128  80.0798325 119.4284892 109.6652661
  76.5490000 120.4010000 110.1070000  77.4771500 120.8790745 108.1019185
  77.6484998 119.1678257 108.5959032  79.7897786 121.3419699 109.0120657
  79.8418866 120.0960970 107.7384997  79.6452520 119.6133657 110.5208065
  79.4510000 117.7340000 115.5510000  77.3970000 118.8810000 114.4350000
  77.5079214 120.1141885 115.3299740  76.6328707 117.7958749 115.1797234
  82.0128790 117.2035784 112.8987728  81.4462276 117.3230000 114.3240000
  80.0290000 117.3230000 114.3240000  80.1500000 116.3510000 114.3550000
  79.6251057 116.7741082 115.0512381  79.2313487 117.5834789 116.6097628
  78.5424599 120.4793217 115.2867677  77.2503039 119.8255211 116.3540313
  76.8504407 120.8971457 114.9542770  77.0399448 116.8220218 114.8867150
  75.5775256 117.8502270 114.9050774  76.7625857 117.9565068 116.2536063
  81.6219904 118.0164292 112.2759391  83.1061579 117.2603141 112.9207570
  81.7953253 118.2527113 114.7823684  81.7917374 116.5024533 114.9615830
  79.7246078 118.2545210 114.3240000  81.0000000 114.8980000 114.4960000
  77.5190000 120.5180000 123.2930000  77.9570000 120.1960000 121.9750000
  79.4736870 120.3290422 121.9070128  80.0798325 119.4284892 122.8312661
  76.5490000 120.4010000 123.2730000  77.4771500 120.8790745 121.2679185
  77.6484998 119.1678257 121.7619032  79.7897786 121.3419699 122.1780657
  79.8418866 120.0960970 120.9044997  79.6452520 119.6133657 123.6868065
  79.4510000 117.7340000 128.7160000  77.3970000 118.8810000 127.6000000
  77.5079214 120.1141885 128.4949740  76.6328707 117.7958749 128.3447234
  82.0128790 117.2035784 126.0637728  81.4462276 117.3230000 127.4890000
  80.0290000 117.3230000 127.4890000  80.1500000 116.3510000 127.5200000
  79.6251057 116.7741082 128.2162381  79.2313487 117.5834789 129.7747628
  78.5424599 120.4793217 128.4517677  77.2503039 119.8255211 129.5190313
  76.8504407 120.8971457 128.1192770  77.0399448 116.8220218 128.0517150
  75.5775256 117.8502270 128.0700774  76.7625857 117.9565068 129.4186063
  81.6219904 118.0164292 125.4409391  83.1061579 117.2603141 126.0857570
  81.7953253 118.2527113 127.9473684  81.7917374 116.5024533 128.1265830
  79.7246078 118.2545210 127.4890000  81.0000000 114.8980000 127.6610000
  77.5190000 120.5180000 136.4580000  77.9570000 120.1960000 135.1400000
  79.4736870 120.3290422 135.0720128  80.0798325 119.4284892 135.9962661
  76.5490000 120.4010000 136.4380000  77.4771500 120.8790745 134.4329185
  77.6484998 119.1678257 134.9269032  79.7897786 121.3419699 135.3430657
  79.8418866 120.0960970 134.0694997  79.6452520 119.6133657 136.8518065
  79.4510000 117.7340000 141.8810000  77.3970000 118.8810000 140.7650000
  77.5079214 120.1141885 141.6599740  76.6328707 117.7958749 141.5097234
  82.0128790 117.2035784 139.2287728  81.4462276 117.3230000 140.6540000
  80.0290000 117.3230000 140.6540000  80.1500000 116.3510000 140.6850000
  79.6251057 116.7741082 141.3812381  79.2313487 117.5834789 142.9397628
  78.5424599 120.4793217 141.6167677  77.2503039 119.8255211 142.6840313
  76.8504407 120.8971457 141.2842770  77.0399448 116.8220218 141.2167150
  75.5775256 117.8502270 141.2350774  76.7625857 117.9565068 142.5836063
  81.6219904 118.0164292 138.6059391  83.1061579 117.2603141 139.2507570
  81.7953253 118.2527113 141.1123684  81.7917374 116.5024533 141.2915830
  79.7246078 118.2545210 140.6540000  81.0000000 114.8980000 140.8260000
  77.5190000 120.5180000 149.6230000  77.9570000 120.1960000 148.3050000
  79.4736870 120.3290422 148.2370128  80.0798325 119.4284892 149.1612661
  76.5490000 120.4010000 149.6030000  77.4771500 120.8790745 147.5979185
  77.6484998 119.1678257 148.0919032  79.7897786 121.3419699 148.5080657
  79.8418866 120.0960970 147.2344997  79.6452520 119.6133657 150.0168065
  79.4510000 117.7340000 155.0460000  77.3970000 118.8810000 153.9300000
  77.5079214 120.1141885 154.8249740  76.6328707 117.7958749 154.6747234
  82.0128790 117.2035784 152.3937728  81.4462276 117.3230000 153.8190000
  80.0290000 117.3230000 153.8190000  80.1500000 116.3510000 153.8500000
  79.6251057 116.7741082 154.5462381  79.2313487 117.5834789 156.1047628
  78.5424599 120.4793217 154.7817677  77.2503039 119.8255211 155.8490313
  76.8504407 120.8971457 154.4492770  77.0399448 116.8220218 154.3817150
  75.5775256 117.8502270 154.4000774  76.7625857 117.9565068 155.7486063
  81.6219904 118.0164292 151.7709391  83.1061579 117.2603141 152.4157570
  81.7953253 118.2527113 154.2773684  81.7917374 116.5024533 154.4565830
  79.7246078 118.2545210 153.8190000  81.0000000 114.8980000 153.9910000
  77.5190000 120.5180000 162.7880000  77.9570000 120.1960000 161.4700000
  79.4736870 120.3290422 161.4020128  80.0798325 119.4284892 162.3262661
  76.5490000 120.4010000 162.7680000  77.4771500 120.8790745 160.7629185
  77.6484998 119.1678257 161.2569032  79.7897786 121.3419699 161.6730657
  79.8418866 120.0960970 160.3994997  79.6452520 119.6133657 163.1818065
  79.4510000 117.7340000 168.2110000  77.3970000 118.8810000 167.0950000
  77.5079214 120.1141885 167.9899740  76.6328707 117.7958749 167.8397234
  82.0128790 117.2035784 165.5587728  81.4462276 117.3230000 166.9840000
  80.0290000 117.3230000 166.9840000  80.1500000 116.3510000 167.0150000
  79.6251057 116.7741082 167.7112381  79.2313487 117.5834789 169.2697628
  78.5424599 120.4793217 167.9467677  77.2503039 119.8255211 169.0140313
  76.8504407 120.8971457 167.6142770  77.0399448 116.8220218 167.5467150
  75.5775256 117.8502270 167.5650774  76.7625857 117.9565068 168.9136063
  81.6219904 118.0164292 164.9359391  83.1061579 117.2603141 165.5807570
  81.7953253 118.2527113 167.4423684  81.7917374 116.5024533 167.6215830
  79.7246078 118.2545210 166.9840000  81.0000000 114.8980000 167.1560000
  77.5190000 120.5180000 175.9530000  77.9570000 120.1960000 174.6350000
  79.4736870 120.3290422 174.5670128  80.0798325 119.4284892 175.4912661
  76.5490000 120.4010000 175.9330000  77.4771500 120.8790745 173.9279185
  77.6484998 119.1678257 174.4219032  79.7897786 121.3419699 174.8380657
  79.8418866 120.0960970 173.5644997  79.6452520 119.6133657 176.3468065
  79.4510000 117.7340000 181.3770000  77.3970000 118.8810000 180.2610000
  77.5079214 120.1141885 181.1559740  76.6328707 117.7958749 181.0057234
  82.0128790 117.2035784 178.7247728  81.4462276 117.3230000 180.1500000
  80.0290000 117.3230000 180.1500000  80.1500000 116.3510000 180.1810000
  79.6251057 116.7741082 180.8772381  79.2313487 117.5834789 182.4357628
  78.5424599 120.4793217 181.1127677  77.2503039 119.8255211 182.1800313
  76.8504407 120.8971457 180.7802770  77.0399448 116.8220218 180.7127150
  75.5775256 117.8502270 180.7310774  76.7625857 117.9565068 182.0796063
  81.6219904 118.0164292 178.1019391  83.1061579 117.2603141 178.7467570
  81.7953253 118.2527113 180.6083684  81.7917374 116.5024533 180.7875830
  79.7246078 118.2545210 180.1500000  81.0000000 114.8980000 180.3220000
  77.5190000 120.5180000 189.1190000  77.9570000 120.1960000 187.8010000
  79.4736870 120.3290422 187.7330128  80.0798325 119.4284892 188.6572661
  76.5490000 120.4010000 189.0990000  77.4771500 120.8790745 187.0939185
  77.6484998 119.1678257 187.5879032  79.7897786 121.3419699 188.0040657
  79.8418866 120.0960970 186.7304997  79.6452520 119.6133657 189.5128065
  79.4510000 117.7340000 194.5420000  77.3970000 118.8810000 193.4260000
  77.5079214 120.1141885 194.3209740  76.6328707 117.7958749 194.1707234
  82.0128790 117.2035784 191.8897728  81.4462276 117.3230000 193.3150000
  80.0290000 117.3230000 193.3150000  80.1500000 116.3510000 193.3460000
  79.6251057 116.7741082 194.0422381  79.2313487 117.5834789 195.6007628
  78.5424599 120.4793217 194.2777677  77.2503039 119.8255211 195.3450313
  76.8504407 120.8971457 193.9452770  77.0399448 116.8220218 193.8777150
  75.5775256 117.8502270 193.8960774  76.7625857 117.9565068 195.2446063
  81.6219904 118.0164292 191.2669391  83.1061579 117.2603141 191.9117570
  81.7953253 118.2527113 193.7733684  81.7917374 116.5024533 193.9525830
  79.7246078 118.2545210 193.3150000  81.0000000 114.8980000 193.4870000
  77.5190000 120.5180000 202.2840000  77.9570000 120.1960000 200.9660000
  79.4736870 120.3290422 200.8980128  80.0798325 119.4284892 201.8222661
  76.5490000 120.4010000 202.2640000  77.4771500 120.8790745 200.2589185
  77.6484998 119.1678257 200.7529032  79.7897786 121.3419699 201.1690657
  79.8418866 120.0960970 199.8954997  79.6452520 119.6133657 202.6778065
  79.4510000 125.0510000  76.0550000  77.3970000 126.1980000  74.9390000
  77.5079214 127.4311885  75.8339740  76.6328707 125.1128749  75.6837234
  82.0128790 124.5205784  73.4027728  81.4462276 124.6400000  74.8280000
  80.0290000 124.6400000  74.8280000  80.1500000 123.6680000  74.8590000
  79.6251057 124.0911082  75.5552381  79.2313487 124.9004789  77.1137628
  78.5424599 127.7963217  75.7907677  77.2503039 127.1425211  76.8580313
  76.8504407 128.2141457  75.4582770  77.0399448 124.1390218  75.3907150
  75.5775256 125.1672270  75.4090774  76.7625857 125.2735068  76.7576063
  81.6219904 125.3334292  72.7799391  83.1061579 124.5773141  73.4247570
  81.7953253 125.5697113  75.2863684  81.7917374 123.8194533  75.4655830
  79.7246078 125.5715210  74.8280000  81.0000000 122.2150000  75.0000000
  77.5190000 127.8350000  83.7970000  77.9570000 127.5130000  82.4790000
  79.4736870 127.6460422  82.4110128  80.0798325 126.7454892  83.3352661
  76.5490000 127.7180000  83.7770000  77.4771500 128.1960745  81.7719185
  77.6484998 126.4848257  82.2659032  79.7897786 128.6589699  82.6820657
  79.8418866 127.4130970  81.4084997  79.6452520 126.9303657  84.1908065
  79.4510000 125.0510000  89.2200000  77.3970000 126.1980000  88.1040000
  77.5079214 127.4311885  88.9989740  76.6328707 125.1128749  88.8487234
  82.0128790 124.5205784  86.5677728  81.4462276 124.6400000  87.9930000
  80.0290000 124.6400000  87.9930000  80.1500000 123.6680000  88.0240000
  79.6251057 124.0911082  88.7202381  79.2313487 124.9004789  90.2787628
  78.5424599 127.7963217  88.9557677  77.2503039 127.1425211  90.0230313
  76.8504407 128.2141457  88.6232770  77.0399448 124.1390218  88.5557150
  75.5775256 125.1672270  88.5740774  76.7625857 125.2735068  89.9226063
  81.6219904 125.3334292  85.9449391  83.1061579 124.5773141  86.5897570
  81.7953253 125.5697113  88.4513684  81.7917374 123.8194533  88.6305830
  79.7246078 125.5715210  87.9930000  81.0000000 122.2150000  88.1650000
  77.5190000 127.8350000  96.9620000  77.9570000 127.5130000  95.6440000
  79.4736870 127.6460422  95.5760128  80.0798325 126.7454892  96.5002661
  76.5490000 127.7180000  96.9420000  77.4771500 128.1960745  94.9369185
  77.6484998 126.4848257  95.4309032  79.7897786 128.6589699  95.8470657
  79.8418866 127.4130970  94.5734997  79.6452520 126.9303657  97.3558065
  79.4510000 125.0510000 102.3850000  77.3970000 126.1980000 101.2690000
  77.5079214 127.4311885 102.1639740  76.6328707 125.1128749 102.0137234
  82.0128790 124.5205784  99.7327728  81.4462276 124.6400000 101.1580000
  80.0290000 124.6400000 101.1580000  80.1500000 123.6680000 101.1890000
  79.6251057 124.0911082 101.8852381  79.2313487 124.9004789 103.4437628
  78.5424599 127.7963217 102.1207677  77.2503039 127.1425211 103.1880313
  76.8504407 128.2141457 101.7882770  77.0399448 124.1390218 101.7207150
  75.5775256 125.1672270 101.7390774  76.7625857 125.2735068 103.0876063
  81.6219904 125.3334292  99.1099391  83.1061579 124.5773141  99.7547570
  81.7953253 125.5697113 101.6163684  81.7917374 123.8194533 101.7955830
  79.7246078 125.5715210 101.1580000  81.0000000 122.2150000 101.3300000
  77.5190000 127.8350000 110.1270000  77.9570000 127.5130000 108.8090000
  79.4736870 127.6460422 108.7410128  80.0798325 126.7454892 109.6652661
  76.5490000 127.7180000 110.1070000  77.4771500 128.1960745 108.1019185
  77.6484998 126.4848257 108.5959032  79.7897786 128.6589699 109.0120657
  79.8418866 127.4130970 107.7384997  79.6452520 126.9303657 110.5208065
  79.4510000 125.0510000 115.5510000  77.3970000 126.1980000 114.4350000
  77.5079214 127.4311885 115.3299740  76.6328707 125.1128749 115.1797234
  82.0128790 124.5205784 112.8987728  81.4462276 124.6400000 114.3240000
  80.0290000 124.6400000 114.3240000  80.1500000 123.6680000 114.3550000
  79.6251057 124.0911082 115.0512381  79.2313487 124.9004789 116.6097628
  78.5424599 127.7963217 115.2867677  77.2503039 127.1425211 116.3540313
  76.8504407 128.2141457 114.9542770  77.0399448 124.1390218 114.8867150
  75.5775256 125.1672270 114.9050774  76.7625857 125.2735068 116.2536063
  81.6219904 125.3334292 112.2759391  83.1061579 124.5773141 112.9207570
  81.7953253 125.5697113 114.7823684  81.7917374 123.8194533 114.9615830
  79.7246078 125.5715210 114.3240000  81.0000000 122.2150000 114.4960000
  77.5190000 127.8350000 123.2930000  77.9570000 127.5130000 121.9750000
  79.4736870 127.6460422 121.9070128  80.0798325 126.7454892 122.8312661
  76.5490000 127.7180000 123.2730000  77.4771500 128.1960745 121.2679185
  77.6484998 126.4848257 121.7619032  79.7897786 128.6589699 122.1780657
  79.8418866 127.4130970 120.9044997  79.6452520 126.9303657 123.6868065
  79.4510000 125.0510000 128.7160000  77.3970000 126.1980000 127.6000000
  77.5079214 127.4311885 128.4949740  76.6328707 125.1128749 128.3447234
  82.0128790 124.5205784 126.0637728  81.4462276 124.6400000 127.4890000
  80.0290000 124.6400000 127.4890000  80.1500000 123.6680000 127.5200000
  79.6251057 124.0911082 128.2162381  79.2313487 124.9004789 129.7747628
  78.5424599 127.7963217 128.4517677  77.2503039 127.1425211 129.5190313
  76.8504407 128.2141457 128.1192770  77.0399448 124.1390218 128.0517150
  75.5775256 125.1672270 128.0700774  76.7625857 125.2735068 129.4186063
  81.6219904 125.3334292 125.4409391  83.1061579 124.5773141 126.0857570
  81.7953253 125.5697113 127.9473684  81.7917374 123.8194533 128.1265830
  79.7246078 125.5715210 127.4890000  81.0000000 122.2150000 127.6610000
  77.5190000 127.8350000 136.4580000  77.9570000 127.5130000 135.1400000
  79.4736870 127.6460422 135.0720128  80.0798325 126.7454892 135.9962661
  76.5490000 127.7180000 136.4380000  77.4771500 128.1960745 134.4329185
  77.6484998 126.4848257 134.9269032  79.7897786 128.6589699 135.3430657
  79.8418866 127.4130970 134.0694997  79.6452520 126.9303657 136.8518065
  79.4510000 125.0510000 141.8810000  77.3970000 126.1980000 140.7650000
  77.5079214 127.4311885 141.6599740  76.6328707 125.1128749 141.5097234
  82.0128790 124.5205784 139.2287728  81.4462276 124.6400000 140.6540000
  80.0290000 124.6400000 140.6540000  80.1500000 123.6680000 140.6850000
  79.6251057 124.0911082 141.3812381  79.2313487 124.9004789 142.9397628
  78.5424599 127.7963217 141.6167677  77.2503039 127.1425211 142.6840313
  76.8504407 128.2141457 141.2842770  77.0399448 124.1390218 141.2167150
  75.5775256 125.1672270 141.2350774  76.7625857 125.2735068 142.5836063
  81.6219904 125.3334292 138.6059391  83.1061579 124.5773141 139.2507570
  81.7953253 125.5697113 141.1123684  81.7917374 123.8194533 141.2915830
  79.7246078 125.5715210 140.6540000  81.0000000 122.2150000 140.8260000
  77.5190000 127.8350000 149.6230000  77.9570000 127.5130000 148.3050000
  79.4736870 127.6460422 148.2370128  80.0798325 126.7454892 149.1612661
  76.5490000 127.7180000 149.6030000  77.4771500 128.1960745 147.5979185
  77.6484998 126.4848257 148.0919032  79.7897786 128.6589699 148.5080657
  79.8418866 127.4130970 147.2344997  79.6452520 126.9303657 150.0168065
  79.4510000 125.0510000 155.0460000  77.3970000 126.1980000 153.9300000
  77.5079214 127.4311885 154.8249740  76.6328707 125.1128749 154.6747234
  82.0128790 124.5205784 152.3937728  81.4462276 124.6400000 153.8190000
  80.0290000 124.6400000 153.8190000  80.1500000 123.6680000 153.8500000
  79.6251057 124.0911082 154.5462381  79.2313487 124.9004789 156.1047628
  78.5424599 127.7963217 154.7817677  77.2503039 127.1425211 155.8490313
  76.8504407 128.2141457 154.4492770  77.0399448 124.1390218 154.3817150
  75.5775256 125.1672270 154.4000774  76.7625857 125.2735068 155.7486063
  81.6219904 125.3334292 151.7709391  83.1061579 124.5773141 152.4157570
  81.7953253 125.5697113 154.2773684  81.7917374 123.8194533 154.4565830
  79.7246078 125.5715210 153.8190000  81.0000000 122.2150000 153.9910000
  77.5190000 127.8350000 162.7880000  77.9570000 127.5130000 161.4700000
  79.4736870 127.6460422 161.4020128  80.0798325 126.7454892 162.3262661
  76.5490000 127.7180000 162.7680000  77.4771500 128.1960745 160.7629185
  77.6484998 126.4848257 161.2569032  79.7897786 128.6589699 161.6730657
  79.8418866 127.4130970 160.3994997  79.6452520 126.9303657 163.1818065
  79.4510000 125.0510000 168.2110000  77.3970000 126.1980000 167.0950000
  77.5079214 127.4311885 167.9899740  76.6328707 125.1128749 167.8397234
  82.0128790 124.5205784 165.5587728  81.4462276 124.6400000 166.9840000
  80.0290000 124.6400000 166.9840000  80.1500000 123.6680000 167.0150000
  79.6251057 124.0911082 167.7112381  79.2313487 124.9004789 169.2697628
  78.5424599 127.7963217 167.9467677  77.2503039 127.1425211 169.0140313
  76.8504407 128.2141457 167.6142770  77.0399448 124.1390218 167.5467150
  75.5775256 125.1672270 167.5650774  76.7625857 125.2735068 168.9136063
  81.6219904 125.3334292 164.9359391  83.1061579 124.5773141 165.5807570
  81.7953253 125.5697113 167.4423684  81.7917374 123.8194533 167.6215830
  79.7246078 125.5715210 166.9840000  81.0000000 122.2150000 167.1560000
  77.5190000 127.8350000 175.9530000  77.9570000 127.5130000 174.6350000
  79.4736870 127.6460422 174.5670128  80.0798325 126.7454892 175.4912661
  76.5490000 127.7180000 175.9330000  77.4771500 128.1960745 173.9279185
  77.6484998 126.4848257 174.4219032  79.7897786 128.6589699 174.8380657
  79.8418866 127.4130970 173.5644997  79.6452520 126.9303657 176.3468065
  79.4510000 125.0510000 181.3770000  77.3970000 126.1980000 180.2610000
  77.5079214 127.4311885 181.1559740  76.6328707 125.1128749 181.0057234
  82.0128790 124.5205784 178.7247728  81.4462276 124.6400000 180.1500000
  80.0290000 124.6400000 180.1500000  80.1500000 123.6680000 180.1810000
  79.6251057 124.0911082 180.8772381  79.2313487 124.9004789 182.4357628
  78.5424599 127.7963217 181.1127677  77.2503039 127.1425211 182.1800313
  76.8504407 128.2141457 180.7802770  77.0399448 124.1390218 180.7127150
  75.5775256 125.1672270 180.7310774  76.7625857 125.2735068 182.0796063
  81.6219904 125.3334292 178.1019391  83.1061579 124.5773141 178.7467570
  81.7953253 125.5697113 180.6083684  81.7917374 123.8194533 180.7875830
  79.7246078 125.5715210 180.1500000  81.0000000 122.2150000 180.3220000
  77.5190000 127.8350000 189.1190000  77.9570000 127.5130000 187.8010000
  79.4736870 127.6460422 187.7330128  80.0798325 126.7454892 188.6572661
  76.5490000 127.7180000 189.0990000  77.4771500 128.1960745 187.0939185
  77.6484998 126.4848257 187.5879032  79.7897786 128.6589699 188.0040657
  79.8418866 127.4130970 186.7304997  79.6452520 126.9303657 189.5128065
  79.4510000 125.0510000 194.5420000  77.3970000 126.1980000 193.4260000
  77.5079214 127.4311885 194.3209740  76.6328707 125.1128749 194.1707234
  82.0128790 124.5205784 191.8897728  81.4462276 124.6400000 193.3150000
  80.0290000 124.6400000 193.3150000  80.1500000 123.6680000 193.3460000
  79.6251057 124.0911082 194.0422381  79.2313487 124.9004789 195.6007628
  78.5424599 127.7963217 194.2777677  77.2503039 127.1425211 195.3450313
  76.8504407 128.2141457 193.9452770  77.0399448 124.1390218 193.8777150
  75.5775256 125.1672270 193.8960774  76.7625857 125.2735068 195.2446063
  81.6219904 125.3334292 191.2669391  83.1061579 124.5773141 191.9117570
  81.7953253 125.5697113 193.7733684  81.7917374 123.8194533 193.9525830
  79.7246078 125.5715210 193.3150000  81.0000000 122.2150000 193.4870000
  77.5190000 127.8350000 202.2840000  77.9570000 127.5130000 200.9660000
  79.4736870 127.6460422 200.8980128  80.0798325 126.7454892 201.8222661
  76.5490000 127.7180000 202.2640000  77.4771500 128.1960745 200.2589185
  77.6484998 126.4848257 200.7529032  79.7897786 128.6589699 201.1690657
  79.8418866 127.4130970 199.8954997  79.6452520 126.9303657 202.6778065
  79.4510000 132.3670000  76.0550000  77.3970000 133.5140000  74.9390000
  77.5079214 134.7471885  75.8339740  76.6328707 132.4288749  75.6837234
  82.0128790 131.8365784  73.4027728  81.4462276 131.9560000  74.8280000
  80.0290000 131.9560000  74.8280000  80.1500000 130.9840000  74.8590000
  79.6251057 131.4071082  75.5552381  79.2313487 132.2164789  77.1137628
  78.5424599 135.1123217  75.7907677  77.2503039 134.4585211  76.8580313
  76.8504407 135.5301457  75.4582770  77.0399448 131.4550218  75.3907150
  75.5775256 132.4832270  75.4090774  76.7625857 132.5895068  76.7576063
  81.6219904 132.6494292  72.7799391  83.1061579 131.8933141  73.4247570
  81.7953253 132.8857113  75.2863684  81.7917374 131.1354533  75.4655830
  79.7246078 132.8875210  74.8280000  81.0000000 129.5310000  75.0000000
  77.5190000 135.1510000  83.7970000  77.9570000 134.8290000  82.4790000
  79.4736870 134.9620422  82.4110128  80.0798325 134.0614892  83.3352661
  76.5490000 135.0340000  83.7770000  77.4771500 135.5120745  81.7719185
  77.6484998 133.8008257  82.2659032  79.7897786 135.9749699  82.6820657
  79.8418866 134.7290970  81.4084997  79.6452520 134.2463657  84.1908065
  79.4510000 132.3670000  89.2200000  77.3970000 133.5140000  88.1040000
  77.5079214 134.7471885  88.9989740  76.6328707 132.4288749  88.8487234
  82.0128790 131.8365784  86.5677728  81.4462276 131.9560000  87.9930000
  80.0290000 131.9560000  87.9930000  80.1500000 130.9840000  88.0240000
  79.6251057 131.4071082  88.7202381  79.2313487 132.2164789  90.2787628
  78.5424599 135.1123217  88.9557677  77.2503039 134.4585211  90.0230313
  76.8504407 135.5301457  88.6232770  77.0399448 131.4550218  88.5557150
  75.5775256 132.4832270  88.5740774  76.7625857 132.5895068  89.9226063
  81.6219904 132.6494292  85.9449391  83.1061579 131.8933141  86.5897570
  81.7953253 132.8857113  88.4513684  81.7917374 131.1354533  88.6305830
  79.7246078 132.8875210  87.9930000  81.0000000 129.5310000  88.1650000
  77.5190000 135.1510000  96.9620000  77.9570000 134.8290000  95.6440000
  79.4736870 134.9620422  95.5760128  80.0798325 134.0614892  96.5002661
  76.5490000 135.0340000  96.9420000  77.4771500 135.5120745  94.9369185
  77.6484998 133.8008257  95.4309032  79.7897786 135.9749699  95.8470657
  79.8418866 134.7290970  94.5734997  79.6452520 134.2463657  97.3558065
  79.4510000 132.3670000 102.3850000  77.3970000 133.5140000 101.2690000
  77.5079214 134.7471885 102.1639740  76.6328707 132.4288749 102.0137234
  82.0128790 131.8365784  99.7327728  81.4462276 131.9560000 101.1580000
  80.0290000 131.9560000 101.1580000  80.1500000 130.9840000 101.1890000
  79.6251057 131.4071082 101.8852381  79.2313487 132.2164789 103.4437628
  78.5424599 135.1123217 102.1207677  77.2503039 134.4585211 103.1880313
  76.8504407 135.5301457 101.7882770  77.0399448 131.4550218 101.7207150
  75.5775256 132.4832270 101.7390774  76.7625857 132.5895068 103.0876063
  81.6219904 132.6494292  99.1099391  83.1061579 131.8933141  99.7547570
  81.7953253 132.8857113 101.6163684  81.7917374 131.1354533 101.7955830
  79.7246078 132.8875210 101.1580000  81.0000000 129.5310000 101.3300000
  77.5190000 135.1510000 110.1270000  77.9570000 134.8290000 108.8090000
  79.4736870 134.9620422 108.7410128  80.0798325 134.0614892 109.6652661
  76.5490000 135.0340000 110.1070000  77.4771500 135.5120745 108.1019185
  77.6484998 133.8008257 108.5959032  79.7897786 135.9749699 109.0120657
  79.8418866 134.7290970 107.7384997  79.6452520 134.2463657 110.5208065
  79.4510000 132.3670000 115.5510000  77.3970000 133.5140000 114.4350000
  77.5079214 134.7471885 115.3299740  76.6328707 132.4288749 115.1797234
  82.0128790 131.8365784 112.8987728  81.4462276 131.9560000 114.3240000
  80.0290000 131.9560000 114.3240000  80.1500000 130.9840000 114.3550000
  79.6251057 131.4071082 115.0512381  79.2313487 132.2164789 116.6097628
  78.5424599 135.1123217 115.2867677  77.2503039 134.4585211 116.3540313
  76.8504407 135.5301457 114.9542770  77.0399448 131.4550218 114.8867150
  75.5775256 132.4832270 114.9050774  76.7625857 132.5895068 116.2536063
  81.6219904 132.6494292 112.2759391  83.1061579 131.8933141 112.9207570
  81.7953253 132.8857113 114.7823684  81.7917374 131.1354533 114.9615830
  79.7246078 132.8875210 114.3240000  81.0000000 129.5310000 114.4960000
  77.5190000 135.1510000 123.2930000  77.9570000 134.8290000 121.9750000
  79.4736870 134.9620422 121.9070128  80.0798325 134.0614892 122.8312661
  76.5490000 135.0340000 123.2730000  77.4771500 135.5120745 121.2679185
  77.6484998 133.8008257 121.7619032  79.7897786 135.9749699 122.1780657
  79.8418866 134.7290970 120.9044997  79.6452520 134.2463657 123.6868065
  79.4510000 132.3670000 128.7160000  77.3970000 133.5140000 127.6000000
  77.5079214 134.7471885 128.4949740  76.6328707 132.4288749 128.3447234
  82.0128790 131.8365784 126.0637728  81.4462276 131.9560000 127.4890000
  80.0290000 131.9560000 127.4890000  80.1500000 130.9840000 127.5200000
  79.6251057 131.4071082 128.2162381  79.2313487 132.2164789 129.7747628
  78.5424599 135.1123217 128.4517677  77.2503039 134.4585211 129.5190313
  76.8504407 135.5301457 128.1192770  77.0399448 131.4550218 128.0517150
  75.5775256 132.4832270 128.0700774  76.7625857 132.5895068 129.4186063
  81.6219904 132.6494292 125.4409391  83.1061579 131.8933141 126.0857570
  81.7953253 132.8857113 127.9473684  81.7917374 131.1354533 128.1265830
  79.7246078 132.8875210 127.4890000  81.0000000 129.5310000 127.6610000
  77.5190000 135.1510000 136.4580000  77.9570000 134.8290000 135.1400000
  79.4736870 134.9620422 135.0720128  80.0798325 134.0614892 135.9962661
  76.5490000 135.0340000 136.4380000  77.4771500 135.5120745 134.4329185
  77.6484998 133.8008257 134.9269032  79.7897786 135.9749699 135.3430657
  79.8418866 134.7290970 134.0694997  79.6452520 134.2463657 136.8518065
  79.4510000 132.3670000 141.8810000  77.3970000 133.5140000 140.7650000
  77.5079214 134.7471885 141.6599740  76.6328707 132.4288749 141.5097234
  82.0128790 131.8365784 139.2287728  81.4462276 131.9560000 140.6540000
  80.0290000 131.9560000 140.6540000  80.1500000 130.9840000 140.6850000
  79.6251057 131.4071082 141.3812381  79.2313487 132.2164789 142.9397628
  78.5424599 135.1123217 141.6167677  77.2503039 134.4585211 142.6840313
  76.8504407 135.5301457 141.2842770  77.0399448 131.4550218 141.2167150
  75.5775256 132.4832270 141.2350774  76.7625857 132.5895068 142.5836063
  81.6219904 132.6494292 138.6059391  83.1061579 131.8933141 139.2507570
  81.7953253 132.8857113 141.1123684  81.7917374 131.1354533 141.2915830
  79.7246078 132.8875210 140.6540000  81.0000000 129.5310000 140.8260000
  77.5190000 135.1510000 149.6230000  77.9570000 134.8290000 148.3050000
  79.4736870 134.9620422 148.2370128  80.0798325 134.0614892 149.1612661
  76.5490000 135.0340000 149.6030000  77.4771500 135.5120745 147.5979185
  77.6484998 133.8008257 148.0919032  79.7897786 135.9749699 148.5080657
  79.8418866 134.7290970 147.2344997  79.6452520 134.2463657 150.0168065
  79.4510000 132.3670000 155.0460000  77.3970000 133.5140000 153.9300000
  77.5079214 134.7471885 154.8249740  76.6328707 132.4288749 154.6747234
  82.0128790 131.8365784 152.3937728  81.4462276 131.9560000 153.8190000
  80.0290000 131.9560000 153.8190000  80.1500000 130.9840000 153.8500000
  79.6251057 131.4071082 154.5462381  79.2313487 132.2164789 156.1047628
  78.5424599 135.1123217 154.7817677  77.2503039 134.4585211 155.8490313
  76.8504407 135.5301457 154.4492770  77.0399448 131.4550218 154.3817150
  75.5775256 132.4832270 154.4000774  76.7625857 132.5895068 155.7486063
  81.6219904 132.6494292 151.7709391  83.1061579 131.8933141 152.4157570
  81.7953253 132.8857113 154.2773684  81.7917374 131.1354533 154.4565830
  79.7246078 132.8875210 153.8190000  81.0000000 129.5310000 153.9910000
  77.5190000 135.1510000 162.7880000  77.9570000 134.8290000 161.4700000
  79.4736870 134.9620422 161.4020128  80.0798325 134.0614892 162.3262661
  76.5490000 135.0340000 162.7680000  77.4771500 135.5120745 160.7629185
  77.6484998 133.8008257 161.2569032  79.7897786 135.9749699 161.6730657
  79.8418866 134.7290970 160.3994997  79.6452520 134.2463657 163.1818065
  79.4510000 132.3670000 168.2110000  77.3970000 133.5140000 167.0950000
  77.5079214 134.7471885 167.9899740  76.6328707 132.4288749 167.8397234
  82.0128790 131.8365784 165.5587728  81.4462276 131.9560000 166.9840000
  80.0290000 131.9560000 166.9840000  80.1500000 130.9840000 167.0150000
  79.6251057 131.4071082 167.7112381  79.2313487 132.2164789 169.2697628
  78.5424599 135.1123217 167.9467677  77.2503039 134.4585211 169.0140313
  76.8504407 135.5301457 167.6142770  77.0399448 131.4550218 167.5467150
  75.5775256 132.4832270 167.5650774  76.7625857 132.5895068 168.9136063
  81.6219904 132.6494292 164.9359391  83.1061579 131.8933141 165.5807570
  81.7953253 132.8857113 167.4423684  81.7917374 131.1354533 167.6215830
  79.7246078 132.8875210 166.9840000  81.0000000 129.5310000 167.1560000
  77.5190000 135.1510000 175.9530000  77.9570000 134.8290000 174.6350000
  79.4736870 134.9620422 174.5670128  80.0798325 134.0614892 175.4912661
  76.5490000 135.0340000 175.9330000  77.4771500 135.5120745 173.9279185
  77.6484998 133.8008257 174.4219032  79.7897786 135.9749699 174.8380657
  79.8418866 134.7290970 173.5644997  79.6452520 134.2463657 176.3468065
  79.4510000 132.3670000 181.3770000  77.3970000 133.5140000 180.2610000
  77.5079214 134.7471885 181.1559740  76.6328707 132.4288749 181.0057234
  82.0128790 131.8365784 178.7247728  81.4462276 131.9560000 180.1500000
  80.0290000 131.9560000 180.1500000  80.1500000 130.9840000 180.1810000
  79.6251057 131.4071082 180.8772381  79.2313487 132.2164789 182.4357628
  78.5424599 135.1123217 181.1127677  77.2503039 134.4585211 182.1800313
  76.8504407 135.5301457 180.7802770  77.0399448 131.4550218 180.7127150
  75.5775256 132.4832270 180.7310774  76.7625857 132.5895068 182.0796063
  81.6219904 132.6494292 178.1019391  83.1061579 131.8933141 178.7467570
  81.7953253 132.8857113 180.6083684  81.7917374 131.1354533 180.7875830
  79.7246078 132.8875210 180.1500000  81.0000000 129.5310000 180.3220000
  77.5190000 135.1510000 189.1190000  77.9570000 134.8290000 187.8010000
  79.4736870 134.9620422 187.7330128  80.0798325 134.0614892 188.6572661
  76.5490000 135.0340000 189.0990000  77.4771500 135.5120745 187.0939185
  77.6484998 133.8008257 187.5879032  79.7897786 135.9749699 188.0040657
  79.8418866 134.7290970 186.7304997  79.6452520 134.2463657 189.5128065
  79.4510000 132.3670000 194.5420000  77.3970000 133.5140000 193.4260000
  77.5079214 134.7471885 194.3209740  76.6328707 132.4288749 194.1707234
  82.0128790 131.8365784 191.8897728  81.4462276 131.9560000 193.3150000
  80.0290000 131.9560000 193.3150000  80.1500000 130.9840000 193.3460000
  79.6251057 131.4071082 194.0422381  79.2313487 132.2164789 195.6007628
  78.5424599 135.1123217 194.2777677  77.2503039 134.4585211 195.3450313
  76.8504407 135.5301457 193.9452770  77.0399448 131.4550218 193.8777150
  75.5775256 132.4832270 193.8960774  76.7625857 132.5895068 195.2446063
  81.6219904 132.6494292 191.2669391  83.1061579 131.8933141 191.9117570
  81.7953253 132.8857113 193.7733684  81.7917374 131.1354533 193.9525830
  79.7246078 132.8875210 193.3150000  81.0000000 129.5310000 193.4870000
  77.5190000 135.1510000 202.2840000  77.9570000 134.8290000 200.9660000
  79.4736870 134.9620422 200.8980128  80.0798325 134.0614892 201.8222661
  76.5490000 135.0340000 202.2640000  77.4771500 135.5120745 200.2589185
  77.6484998 133.8008257 200.7529032  79.7897786 135.9749699 201.1690657
  79.8418866 134.7290970 199.8954997  79.6452520 134.2463657 202.6778065
  79.4510000 139.6840000  76.0550000  77.3970000 140.8310000  74.9390000
  77.5079214 142.0641885  75.8339740  76.6328707 139.7458749  75.6837234
  82.0128790 139.1535784  73.4027728  81.4462276 139.2730000  74.8280000
  80.0290000 139.2730000  74.8280000  80.1500000 138.3010000  74.8590000
  79.6251057 138.7241082  75.5552381  79.2313487 139.5334789  77.1137628
  78.5424599 142.4293217  75.7907677  77.2503039 141.7755211  76.8580313
  76.8504407 142.8471457  75.4582770  77.0399448 138.7720218  75.3907150
  75.5775256 139.8002270  75.4090774  76.7625857 139.9065068  76.7576063
  81.6219904 139.9664292  72.7799391  83.1061579 139.2103141  73.4247570
  81.7953253 140.2027113  75.2863684  81.7917374 138.4524533  75.4655830
  79.7246078 140.2045210  74.8280000  81.0000000 136.8480000  75.0000000
  77.5190000 142.4680000  83.7970000  77.9570000 142.1460000  82.4790000
  79.4736870 142.2790422  82.4110128  80.0798325 141.3784892  83.3352661
  76.5490000 142.3510000  83.7770000  77.4771500 142.8290745  81.7719185
  77.6484998 141.1178257  82.2659032  79.7897786 143.2919699  82.6820657
  79.8418866 142.0460970  81.4084997  79.6452520 141.5633657  84.1908065
  79.4510000 139.6840000  89.2200000  77.3970000 140.8310000  88.1040000
  77.5079214 142.0641885  88.9989740  76.6328707 139.7458749  88.8487234
  82.0128790 139.1535784  86.5677728  81.4462276 139.2730000  87.9930000
  80.0290000 139.2730000  87.9930000  80.1500000 138.3010000  88.0240000
  79.6251057 138.7241082  88.7202381  79.2313487 139.5334789  90.2787628
  78.5424599 142.4293217  88.9557677  77.2503039 141.7755211  90.0230313
  76.8504407 142.8471457  88.6232770  77.0399448 138.7720218  88.5557150
  75.5775256 139.8002270  88.5740774  76.7625857 139.9065068  89.9226063
  81.6219904 139.9664292  85.9449391  83.1061579 139.2103141  86.5897570
  81.7953253 140.2027113  88.4513684  81.7917374 138.4524533  88.6305830
  79.7246078 140.2045210  87.9930000  81.0000000 136.8480000  88.1650000
  77.5190000 142.4680000  96.9620000  77.9570000 142.1460000  95.6440000
  79.4736870 142.2790422  95.5760128  80.0798325 141.3784892  96.5002661
  76.5490000 142.3510000  96.9420000  77.4771500 142.8290745  94.9369185
  77.6484998 141.1178257  95.4309032  79.7897786 143.2919699  95.8470657
  79.8418866 142.0460970  94.5734997  79.6452520 141.5633657  97.3558065
  79.4510000 139.6840000 102.3850000  77.3970000 140.8310000 101.2690000
  77.5079214 142.0641885 102.1639740  76.6328707 139.7458749 102.0137234
  82.0128790 139.1535784  99.7327728  81.4462276 139.2730000 101.1580000
  80.0290000 139.2730000 101.1580000  80.1500000 138.3010000 101.1890000
  79.6251057 138.7241082 101.8852381  79.2313487 139.5334789 103.4437628
  78.5424599 142.4293217 102.1207677  77.2503039 141.7755211 103.1880313
  76.8504407 142.8471457 101.7882770  77.0399448 138.7720218 101.7207150
  75.5775256 139.8002270 101.7390774  76.7625857 139.9065068 103.0876063
  81.6219904 139.9664292  99.1099391  83.1061579 139.2103141  99.7547570
  81.7953253 140.2027113 101.6163684  81.7917374 138.4524533 101.7955830
  79.7246078 140.2045210 101.1580000  81.0000000 136.8480000 101.3300000
  77.5190000 142.4680000 110.1270000  77.9570000 142.1460000 108.8090000
  79.4736870 142.2790422 108.7410128  80.0798325 141.3784892 109.6652661
  76.5490000 142.3510000 110.1070000  77.4771500 142.8290745 108.1019185
  77.6484998 141.1178257 108.5959032  79.7897786 143.2919699 109.0120657
  79.8418866 142.0460970 107.7384997  79.6452520 141.5633657 110.5208065
  79.4510000 139.6840000 115.5510000  77.3970000 140.8310000 114.4350000
  77.5079214 142.0641885 115.3299740  76.6328707 139.7458749 115.1797234
  82.0128790 139.1535784 112.8987728  81.4462276 139.2730000 114.3240000
  80.0290000 139.2730000 114.3240000  80.1500000 138.3010000 114.3550000
  79.6251057 138.7241082 115.0512381  79.2313487 139.5334789 116.6097628
  78.5424599 142.4293217 115.2867677  77.2503039 141.7755211 116.3540313
  76.8504407 142.8471457 114.9542770  77.0399448 138.7720218 114.8867150
  75.5775256 139.8002270 114.9050774  76.7625857 139.9065068 116.2536063
  81.6219904 139.9664292 112.2759391  83.1061579 139.2103141 112.9207570
  81.7953253 140.2027113 114.7823684  81.7917374 138.4524533 114.9615830
  79.7246078 140.2045210 114.3240000  81.0000000 136.8480000 114.4960000
  77.5190000 142.4680000 123.2930000  77.9570000 142.1460000 121.9750000
  79.4736870 142.2790422 121.9070128  80.0798325 141.3784892 122.8312661
  76.5490000 142.3510000 123.2730000  77.4771500 142.8290745 121.2679185
  77.6484998 141.1178257 121.7619032  79.7897786 143.2919699 122.1780657
  79.8418866 142.0460970 120.9044997  79.6452520 141.5633657 123.6868065
  79.4510000 139.6840000 128.7160000  77.3970000 140.8310000 127.6000000
  77.5079214 142.0641885 128.4949740  76.6328707 139.7458749 128.3447234
  82.0128790 139.1535784 126.0637728  81.4462276 139.2730000 127.4890000
  80.0290000 139.2730000 127.4890000  80.1500000 138.3010000 127.5200000
  79.6251057 138.7241082 128.2162381  79.2313487 139.5334789 129.7747628
  78.5424599 142.4293217 128.4517677  77.2503039 141.7755211 129.5190313
  76.8504407 142.8471457 128.1192770  77.0399448 138.7720218 128.0517150
  75.5775256 139.8002270 128.0700774  76.7625857 139.9065068 129.4186063
  81.6219904 139.9664292 125.4409391  83.1061579 139.2103141 126.0857570
  81.7953253 140.2027113 127.9473684  81.7917374 138.4524533 128.1265830
  79.7246078 140.2045210 127.4890000  81.0000000 136.8480000 127.6610000
  77.5190000 142.4680000 136.4580000  77.9570000 142.1460000 135.1400000
  79.4736870 142.2790422 135.0720128  80.0798325 141.3784892 135.9962661
  76.5490000 142.3510000 136.4380000  77.4771500 142.8290745 134.4329185
  77.6484998 141.1178257 134.9269032  79.7897786 143.2919699 135.3430657
  79.8418866 142.0460970 134.0694997  79.6452520 141.5633657 136.8518065
  79.4510000 139.6840000 141.8810000  77.3970000 140.8310000 140.7650000
  77.5079214 142.0641885 141.6599740  76.6328707 139.7458749 141.5097234
  82.0128790 139.1535784 139.2287728  81.4462276 139.2730000 140.6540000
  80.0290000 139.2730000 140.6540000  80.1500000 138.3010000 140.6850000
  79.6251057 138.7241082 141.3812381  79.2313487 139.5334789 142.9397628
  78.5424599 142.4293217 141.6167677  77.2503039 141.7755211 142.6840313
  76.8504407 142.8471457 141.2842770  77.0399448 138.7720218 141.2167150
  75.5775256 139.8002270 141.2350774  76.7625857 139.9065068 142.5836063
  81.6219904 139.9664292 138.6059391  83.1061579 139.2103141 139.2507570
  81.7953253 140.2027113 141.1123684  81.7917374 138.4524533 141.2915830
  79.7246078 140.2045210 140.6540000  81.0000000 136.8480000 140.8260000
  77.5190000 142.4680000 149.6230000  77.9570000 142.1460000 148.3050000
  79.4736870 142.2790422 148.2370128  80.0798325 141.3784892 149.1612661
  76.5490000 142.3510000 149.6030000  77.4771500 142.8290745 147.5979185
  77.6484998 141.1178257 148.0919032  79.7897786 143.2919699 148.5080657
  79.8418866 142.0460970 147.2344997  79.6452520 141.5633657 150.0168065
  79.4510000 139.6840000 155.0460000  77.3970000 140.8310000 153.9300000
  77.5079214 142.0641885 154.8249740  76.6328707 139.7458749 154.6747234
  82.0128790 139.1535784 152.3937728  81.4462276 139.2730000 153.8190000
  80.0290000 139.2730000 153.8190000  80.1500000 138.3010000 153.8500000
  79.6251057 138.7241082 154.5462381  79.2313487 139.5334789 156.1047628
  78.5424599 142.4293217 154.7817677  77.2503039 141.7755211 155.8490313
  76.8504407 142.8471457 154.4492770  77.0399448 138.7720218 154.3817150
  75.5775256 139.8002270 154.4000774  76.7625857 139.9065068 155.7486063
  81.6219904 139.9664292 151.7709391  83.1061579 139.2103141 152.4157570
  81.7953253 140.2027113 154.2773684  81.7917374 138.4524533 154.4565830
  79.7246078 140.2045210 153.8190000  81.0000000 136.8480000 153.9910000
  77.5190000 142.4680000 162.7880000  77.9570000 142.1460000 161.4700000
  79.4736870 142.2790422 161.4020128  80.0798325 141.3784892 162.3262661
  76.5490000 142.3510000 162.7680000  77.4771500 142.8290745 160.7629185
  77.6484998 141.1178257 161.2569032  79.7897786 143.2919699 161.6730657
  79.8418866 142.0460970 160.3994997  79.6452520 141.5633657 163.1818065
  79.4510000 139.6840000 168.2110000  77.3970000 140.8310000 167.0950000
  77.5079214 142.0641885 167.9899740  76.6328707 139.7458749 167.8397234
  82.0128790 139.1535784 165.5587728  81.4462276 139.2730000 166.9840000
  80.0290000 139.2730000 166.9840000  80.1500000 138.3010000 167.0150000
  79.6251057 138.7241082 167.7112381  79.2313487 139.5334789 169.2697628
  78.5424599 142.4293217 167.9467677  77.2503039 141.7755211 169.0140313
  76.8504407 142.8471457 167.6142770  77.0399448 138.7720218 167.5467150
  75.5775256 139.8002270 167.5650774  76.7625857 139.9065068 168.9136063
  81.6219904 139.9664292 164.9359391  83.1061579 139.2103141 165.5807570
  81.7953253 140.2027113 167.4423684  81.7917374 138.4524533 167.6215830
  79.7246078 140.2045210 166.9840000  81.0000000 136.8480000 167.1560000
  77.5190000 142.4680000 175.9530000  77.9570000 142.1460000 174.6350000
  79.4736870 142.2790422 174.5670128  80.0798325 141.3784892 175.4912661
  76.5490000 142.3510000 175.9330000  77.4771500 142.8290745 173.9279185
  77.6484998 141.1178257 174.4219032  79.7897786 143.2919699 174.8380657
  79.8418866 142.0460970 173.5644997  79.6452520 141.5633657 176.3468065
  79.4510000 139.6840000 181.3770000  77.3970000 140.8310000 180.2610000
  77.5079214 142.0641885 181.1559740  76.6328707 139.7458749 181.0057234
  82.0128790 139.1535784 178.7247728  81.4462276 139.2730000 180.1500000
  80.0290000 139.2730000 180.1500000  80.1500000 138.3010000 180.1810000
  79.6251057 138.7241082 180.8772381  79.2313487 139.5334789 182.4357628
  78.5424599 142.4293217 181.1127677  77.2503039 141.7755211 182.1800313
  76.8504407 142.8471457 180.7802770  77.0399448 138.7720218 180.7127150
  75.5775256 139.8002270 180.7310774  76.7625857 139.9065068 182.0796063
  81.6219904 139.9664292 178.1019391  83.1061579 139.2103141 178.7467570
  81.7953253 140.2027113 180.6083684  81.7917374 138.4524533 180.7875830
  79.7246078 140.2045210 180.1500000  81.0000000 136.8480000 180.3220000
  77.5190000 142.4680000 189.1190000  77.9570000 142.1460000 187.8010000
  79.4736870 142.2790422 187.7330128  80.0798325 141.3784892 188.6572661
  76.5490000 142.3510000 189.0990000  77.4771500 142.8290745 187.0939185
  77.6484998 141.1178257 187.5879032  79.7897786 143.2919699 188.0040657
  79.8418866 142.0460970 186.7304997  79.6452520 141.5633657 189.5128065
  79.4510000 139.6840000 194.5420000  77.3970000 140.8310000 193.4260000
  77.5079214 142.0641885 194.3209740  76.6328707 139.7458749 194.1707234
  82.0128790 139.1535784 191.8897728  81.4462276 139.2730000 193.3150000
  80.0290000 139.2730000 193.3150000  80.1500000 138.3010000 193.3460000
  79.6251057 138.7241082 194.0422381  79.2313487 139.5334789 195.6007628
  78.5424599 142.4293217 194.2777677  77.2503039 141.7755211 195.3450313
  76.8504407 142.8471457 193.9452770  77.0399448 138.7720218 193.8777150
  75.5775256 139.8002270 193.8960774  76.7625857 139.9065068 195.2446063
  81.6219904 139.9664292 191.2669391  83.1061579 139.2103141 191.9117570
  81.7953253 140.2027113 193.7733684  81.7917374 138.4524533 193.9525830
  79.7246078 140.2045210 193.3150000  81.0000000 136.8480000 193.4870000
  77.5190000 142.4680000 202.2840000  77.9570000 142.1460000 200.9660000
  79.4736870 142.2790422 200.8980128  80.0798325 141.3784892 201.8222661
  76.5490000 142.3510000 202.2640000  77.4771500 142.8290745 200.2589185
  77.6484998 141.1178257 200.7529032  79.7897786 143.2919699 201.1690657
  79.8418866 142.0460970 199.8954997  79.6452520 141.5633657 202.6778065
  92.1290000  73.8360000  76.0550000  90.0750000  74.9830000  74.9390000
  90.1859214  76.2161885  75.8339740  89.3108707  73.8978749  75.6837234
  94.6908790  73.3055784  73.4027728  94.1242276  73.4250000  74.8280000
  92.7070000  73.4250000  74.8280000  92.8280000  72.4530000  74.8590000
  92.3031057  72.8761082  75.5552381  91.9093487  73.6854789  77.1137628
  91.2204599  76.5813217  75.7907677  89.9283039  75.9275211  76.8580313
  89.5284407  76.9991457  75.4582770  89.7179448  72.9240218  75.3907150
  88.2555256  73.9522270  75.4090774  89.4405857  74.0585068  76.7576063
  94.2999904  74.1184292  72.7799391  95.7841579  73.3623141  73.4247570
  94.4733253  74.3547113  75.2863684  94.4697374  72.6044533  75.4655830
  92.4026078  74.3565210  74.8280000  93.6780000  71.0000000  75.0000000
  90.1970000  76.6200000  83.7970000  90.6350000  76.2980000  82.4790000
  92.1516870  76.4310422  82.4110128  92.7578325  75.5304892  83.3352661
  89.2270000  76.5030000  83.7770000  90.1551500  76.9810745  81.7719185
  90.3264998  75.2698257  82.2659032  92.4677786  77.4439699  82.6820657
  92.5198866  76.1980970  81.4084997  92.3232520  75.7153657  84.1908065
  92.1290000  73.8360000  89.2200000  90.0750000  74.9830000  88.1040000
  90.1859214  76.2161885  88.9989740  89.3108707  73.8978749  88.8487234
  94.6908790  73.3055784  86.5677728  94.1242276  73.4250000  87.9930000
  92.7070000  73.4250000  87.9930000  92.8280000  72.4530000  88.0240000
  92.3031057  72.8761082  88.7202381  91.9093487  73.6854789  90.2787628
  91.2204599  76.5813217  88.9557677  89.9283039  75.9275211  90.0230313
  89.5284407  76.9991457  88.6232770  89.7179448  72.9240218  88.5557150
  88.2555256  73.9522270  88.5740774  89.4405857  74.0585068  89.9226063
  94.2999904  74.1184292  85.9449391  95.7841579  73.3623141  86.5897570
  94.4733253  74.3547113  88.4513684  94.4697374  72.6044533  88.6305830
  92.4026078  74.3565210  87.9930000  93.6780000  71.0000000  88.1650000
  90.1970000  76.6200000  96.9620000  90.6350000  76.2980000  95.6440000
  92.1516870  76.4310422  95.5760128  92.7578325  75.5304892  96.5002661
  89.2270000  76.5030000  96.9420000  90.1551500  76.9810745  94.9369185
  90.3264998  75.2698257  95.4309032  92.4677786  77.4439699  95.8470657
  92.5198866  76.1980970  94.5734997  92.3232520  75.7153657  97.3558065
  92.1290000  73.8360000 102.3850000  90.0750000  74.9830000 101.2690000
  90.1859214  76.2161885 102.1639740  89.3108707  73.8978749 102.0137234
  94.6908790  73.3055784  99.7327728  94.1242276  73.4250000 101.1580000
  92.7070000  73.4250000 101.1580000  92.8280000  72.4530000 101.1890000
  92.3031057  72.8761082 101.8852381  91.9093487  73.6854789 103.4437628
  91.2204599  76.5813217 102.1207677  89.9283039  75.9275211 103.1880313
  89.5284407  76.9991457 101.7882770  89.7179448  72.9240218 101.7207150
  88.2555256  73.9522270 101.7390774  89.4405857  74.0585068 103.0876063
  94.2999904  74.1184292  99.1099391  95.7841579  73.3623141  99.7547570
  94.4733253  74.3547113 101.6163684  94.4697374  72.6044533 101.7955830
  92.4026078  74.3565210 101.1580000  93.6780000  71.0000000 101.3300000
  90.1970000  76.6200000 110.1270000  90.6350000  76.2980000 108.8090000
  92.1516870  76.4310422 108.7410128  92.7578325  75.5304892 109.6652661
  89.2270000  76.5030000 110.1070000  90.1551500  76.9810745 108.1019185
  90.3264998  75.2698257 108.5959032  92.4677786  77.4439699 109.0120657
  92.5198866  76.1980970 107.7384997  92.3232520  75.7153657 110.5208065
  92.1290000  73.8360000 115.5510000  90.0750000  74.9830000 114.4350000
  90.1859214  76.2161885 115.3299740  89.3108707  73.8978749 115.1797234
  94.6908790  73.3055784 112.8987728  94.1242276  73.4250000 114.3240000
  92.7070000  73.4250000 114.3240000  92.8280000  72.4530000 114.3550000
  92.3031057  72.8761082 115.0512381  91.9093487  73.6854789 116.6097628
  91.2204599  76.5813217 115.2867677  89.9283039  75.9275211 116.3540313
  89.5284407  76.9991457 114.9542770  89.7179448  72.9240218 114.8867150
  88.2555256  73.9522270 114.9050774  89.4405857  74.0585068 116.2536063
  94.2999904  74.1184292 112.2759391  95.7841579  73.3623141 112.9207570
  94.4733253  74.3547113 114.7823684  94.4697374  72.6044533 114.9615830
  92.4026078  74.3565210 114.3240000  93.6780000  71.0000000 114.4960000
  90.1970000  76.6200000 123.2930000  90.6350000  76.2980000 121.9750000
  92.1516870  76.4310422 121.9070128  92.7578325  75.5304892 122.8312661
  89.2270000  76.5030000 123.2730000  90.1551500  76.9810745 121.2679185
  90.3264998  75.2698257 121.7619032  92.4677786  77.4439699 122.1780657
  92.5198866  76.1980970 120.9044997  92.3232520  75.7153657 123.6868065
  92.1290000  73.8360000 128.7160000  90.0750000  74.9830000 127.6000000
  90.1859214  76.2161885 128.4949740  89.3108707  73.8978749 128.3447234
  94.6908790  73.3055784 126.0637728  94.1242276  73.4250000 127.4890000
  92.7070000  73.4250000 127.4890000  92.8280000  72.4530000 127.5200000
  92.3031057  72.8761082 128.2162381  91.9093487  73.6854789 129.7747628
  91.2204599  76.5813217 128.4517677  89.9283039  75.9275211 129.5190313
  89.5284407  76.9991457 128.1192770  89.7179448  72.9240218 128.0517150
  88.2555256  73.9522270 128.0700774  89.4405857  74.0585068 129.4186063
  94.2999904  74.1184292 125.4409391  95.7841579  73.3623141 126.0857570
  94.4733253  74.3547113 127.9473684  94.4697374  72.6044533 128.1265830
  92.4026078  74.3565210 127.4890000  93.6780000  71.0000000 127.6610000
  90.1970000  76.6200000 136.4580000  90.6350000  76.2980000 135.1400000
  92.1516870  76.4310422 135.0720128  92.7578325  75.5304892 135.9962661
  89.2270000  76.5030000 136.4380000  90.1551500  76.9810745 134.4329185
  90.3264998  75.2698257 134.9269032  92.4677786  77.4439699 135.3430657
  92.5198866  76.1980970 134.0694997  92.3232520  75.7153657 136.8518065
  92.1290000  73.8360000 141.8810000  90.0750000  74.9830000 140.7650000
  90.1859214  76.2161885 141.6599740  89.3108707  73.8978749 141.5097234
  94.6908790  73.3055784 139.2287728  94.1242276  73.4250000 140.6540000
  92.7070000  73.4250000 140.6540000  92.8280000  72.4530000 140.6850000
  92.3031057  72.8761082 141.3812381  91.9093487  73.6854789 142.9397628
  91.2204599  76.5813217 141.6167677  89.9283039  75.9275211 142.6840313
  89.5284407  76.9991457 141.2842770  89.7179448  72.9240218 141.2167150
  88.2555256  73.9522270 141.2350774  89.4405857  74.0585068 142.5836063
  94.2999904  74.1184292 138.6059391  95.7841579  73.3623141 139.2507570
  94.4733253  74.3547113 141.1123684  94.4697374  72.6044533 141.2915830
  92.4026078  74.3565210 140.6540000  93.6780000  71.0000000 140.8260000
  90.1970000  76.6200000 149.6230000  90.6350000  76.2980000 148.3050000
  92.1516870  76.4310422 148.2370128  92.7578325  75.5304892 149.1612661
  89.2270000  76.5030000 149.6030000  90.1551500  76.9810745 147.5979185
  90.3264998  75.2698257 148.0919032  92.4677786  77.4439699 148.5080657
  92.5198866  76.1980970 147.2344997  92.3232520  75.7153657 150.0168065
  92.1290000  73.8360000 155.0460000  90.0750000  74.9830000 153.9300000
  90.1859214  76.2161885 154.8249740  89.3108707  73.8978749 154.6747234
  94.6908790  73.3055784 152.3937728  94.1242276  73.4250000 153.8190000
  92.7070000  73.4250000 153.8190000  92.8280000  72.4530000 153.8500000
  92.3031057  72.8761082 154.5462381  91.9093487  73.6854789 156.1047628
  91.2204599  76.5813217 154.7817677  89.9283039  75.9275211 155.8490313
  89.5284407  76.9991457 154.4492770  89.7179448  72.9240218 154.3817150
  88.2555256  73.9522270 154.4000774  89.4405857  74.0585068 155.7486063
  94.2999904  74.1184292 151.7709391  95.7841579  73.3623141 152.4157570
  94.4733253  74.3547113 154.2773684  94.4697374  72.6044533 154.4565830
  92.4026078  74.3565210 153.8190000  93.6780000  71.0000000 153.9910000
  90.1970000  76.6200000 162.7880000  90.6350000  76.2980000 161.4700000
  92.1516870  76.4310422 161.4020128  92.7578325  75.5304892 162.3262661
  89.2270000  76.5030000 162.7680000  90.1551500  76.9810745 160.7629185
  90.3264998  75.2698257 161.2569032  92.4677786  77.4439699 161.6730657
  92.5198866  76.1980970 160.3994997  92.3232520  75.7153657 163.1818065
  92.1290000  73.8360000 168.2110000  90.0750000  74.9830000 167.0950000
  90.1859214  76.2161885 167.9899740  89.3108707  73.8978749 167.8397234
  94.6908790  73.3055784 165.5587728  94.1242276  73.4250000 166.9840000
  92.7070000  73.4250000 166.9840000  92.8280000  72.4530000 167.0150000
  92.3031057  72.8761082 167.7112381  91.9093487  73.6854789 169.2697628
  91.2204599  76.5813217 167.9467677  89.9283039  75.9275211 169.0140313
  89.5284407  76.9991457 167.6142770  89.7179448  72.9240218 167.5467150
  88.2555256  73.9522270 167.5650774  89.4405857  74.0585068 168.9136063
  94.2999904  74.1184292 164.9359391  95.7841579  73.3623141 165.5807570
  94.4733253  74.3547113 167.4423684  94.4697374  72.6044533 167.6215830
  92.4026078  74.3565210 166.9840000  93.6780000  71.0000000 167.1560000
  90.1970000  76.6200000 175.9530000  90.6350000  76.2980000 174.6350000
  92.1516870  76.4310422 174.5670128  92.7578325  75.5304892 175.4912661
  89.2270000  76.5030000 175.9330000  90.1551500  76.9810745 173.9279185
  90.3264998  75.2698257 174.4219032  92.4677786  77.4439699 174.8380657
  92.5198866  76.1980970 173.5644997  92.3232520  75.7153657 176.3468065
  92.1290000  73.8360000 181.3770000  90.0750000  74.9830000 180.2610000
  90.1859214  76.2161885 181.1559740  89.3108707  73.8978749 181.0057234
  94.6908790  73.3055784 178.7247728  94.1242276  73.4250000 180.1500000
  92.7070000  73.4250000 180.1500000  92.8280000  72.4530000 180.1810000
  92.3031057  72.8761082 180.8772381  91.9093487  73.6854789 182.4357628
  91.2204599  76.5813217 181.1127677  89.9283039  75.9275211 182.1800313
  89.5284407  76.9991457 180.7802770  89.7179448  72.9240218 180.7127150
  88.2555256  73.9522270 180.7310774  89.4405857  74.0585068 182.0796063
  94.2999904  74.1184292 178.1019391  95.7841579  73.3623141 178.7467570
  94.4733253  74.3547113 180.6083684  94.4697374  72.6044533 180.7875830
  92.4026078  74.3565210 180.1500000  93.6780000  71.0000000 180.3220000
  90.1970000  76.6200000 189.1190000  90.6350000  76.2980000 187.8010000
  92.1516870  76.4310422 187.7330128  92.7578325  75.5304892 188.6572661
  89.2270000  76.5030000 189.0990000  90.1551500  76.9810745 187.0939185
  90.3264998  75.2698257 187.5879032  92.4677786  77.4439699 188.0040657
  92.5198866  76.1980970 186.7304997  92.3232520  75.7153657 189.5128065
  92.1290000  73.8360000 194.5420000  90.0750000  74.9830000 193.4260000
  90.1859214  76.2161885 194.3209740  89.3108707  73.8978749 194.1707234
  94.6908790  73.3055784 191.8897728  94.1242276  73.4250000 193.3150000
  92.7070000  73.4250000 193.3150000  92.8280000  72.4530000 193.3460000
  92.3031057  72.8761082 194.0422381  91.9093487  73.6854789 195.6007628
  91.2204599  76.5813217 194.2777677  89.9283039  75.9275211 195.3450313
  89.5284407  76.9991457 193.9452770  89.7179448  72.9240218 193.8777150
  88.2555256  73.9522270 193.8960774  89.4405857  74.0585068 195.2446063
  94.2999904  74.1184292 191.2669391  95.7841579  73.3623141 191.9117570
  94.4733253  74.3547113 193.7733684  94.4697374  72.6044533 193.9525830
  92.4026078  74.3565210 193.3150000  93.6780000  71.0000000 193.4870000
  90.1970000  76.6200000 202.2840000  90.6350000  76.2980000 200.9660000
  92.1516870  76.4310422 200.8980128  92.7578325  75.5304892 201.8222661
  89.2270000  76.5030000 202.2640000  90.1551500  76.9810745 200.2589185
  90.3264998  75.2698257 200.7529032  92.4677786  77.4439699 201.1690657
  92.5198866  76.1980970 199.8954997  92.3232520  75.7153657 202.6778065
  92.1290000  81.1520000  76.0550000  90.0750000  82.2990000  74.9390000
  90.1859214  83.5321885  75.8339740  89.3108707  81.2138749  75.6837234
  94.6908790  80.6215784  73.4027728  94.1242276  80.7410000  74.8280000
  92.7070000  80.7410000  74.8280000  92.8280000  79.7690000  74.8590000
  92.3031057  80.1921082  75.5552381  91.9093487  81.0014789  77.1137628
  91.2204599  83.8973217  75.7907677  89.9283039  83.2435211  76.8580313
  89.5284407  84.3151457  75.4582770  89.7179448  80.2400218  75.3907150
  88.2555256  81.2682270  75.4090774  89.4405857  81.3745068  76.7576063
  94.2999904  81.4344292  72.7799391  95.7841579  80.6783141  73.4247570
  94.4733253  81.6707113  75.2863684  94.4697374  79.9204533  75.4655830
  92.4026078  81.6725210  74.8280000  93.6780000  78.3160000  75.0000000
  90.1970000  83.9360000  83.7970000  90.6350000  83.6140000  82.4790000
  92.1516870  83.7470422  82.4110128  92.7578325  82.8464892  83.3352661
  89.2270000  83.8190000  83.7770000  90.1551500  84.2970745  81.7719185
  90.3264998  82.5858257  82.2659032  92.4677786  84.7599699  82.6820657
  92.5198866  83.5140970  81.4084997  92.3232520  83.0313657  84.1908065
  92.1290000  81.1520000  89.2200000  90.0750000  82.2990000  88.1040000
  90.1859214  83.5321885  88.9989740  89.3108707  81.2138749  88.8487234
  94.6908790  80.6215784  86.5677728  94.1242276  80.7410000  87.9930000
  92.7070000  80.7410000  87.9930000  92.8280000  79.7690000  88.0240000
  92.3031057  80.1921082  88.7202381  91.9093487  81.0014789  90.2787628
  91.2204599  83.8973217  88.9557677  89.9283039  83.2435211  90.0230313
  89.5284407  84.3151457  88.6232770  89.7179448  80.2400218  88.5557150
  88.2555256  81.2682270  88.5740774  89.4405857  81.3745068  89.9226063
  94.2999904  81.4344292  85.9449391  95.7841579  80.6783141  86.5897570
  94.4733253  81.6707113  88.4513684  94.4697374  79.9204533  88.6305830
  92.4026078  81.6725210  87.9930000  93.6780000  78.3160000  88.1650000
  90.1970000  83.9360000  96.9620000  90.6350000  83.6140000  95.6440000
  92.1516870  83.7470422  95.5760128  92.7578325  82.8464892  96.5002661
  89.2270000  83.8190000  96.9420000  90.1551500  84.2970745  94.9369185
  90.3264998  82.5858257  95.4309032  92.4677786  84.7599699  95.8470657
  92.5198866  83.5140970  94.5734997  92.3232520  83.0313657  97.3558065
  92.1290000  81.1520000 102.3850000  90.0750000  82.2990000 101.2690000
  90.1859214  83.5321885 102.1639740  89.3108707  81.2138749 102.0137234
  94.6908790  80.6215784  99.7327728  94.1242276  80.7410000 101.1580000
  92.7070000  80.7410000 101.1580000  92.8280000  79.7690000 101.1890000
  92.3031057  80.1921082 101.8852381  91.9093487  81.0014789 103.4437628
  91.2204599  83.8973217 102.1207677  89.9283039  83.2435211 103.1880313
  89.5284407  84.3151457 101.7882770  89.7179448  80.2400218 101.7207150
  88.2555256  81.2682270 101.7390774  89.4405857  81.3745068 103.0876063
  94.2999904  81.4344292  99.1099391  95.7841579  80.6783141  99.7547570
  94.4733253  81.6707113 101.6163684  94.4697374  79.9204533 101.7955830
  92.4026078  81.6725210 101.1580000  93.6780000  78.3160000 101.3300000
  90.1970000  83.9360000 110.1270000  90.6350000  83.6140000 108.8090000
  92.1516870  83.7470422 108.7410128  92.7578325  82.8464892 109.6652661
  89.2270000  83.8190000 110.1070000  90.1551500  84.2970745 108.1019185
  90.3264998  82.5858257 108.5959032  92.4677786  84.7599699 109.0120657
  92.5198866  83.5140970 107.7384997  92.3232520  83.0313657 110.5208065
  92.1290000  81.1520000 115.5510000  90.0750000  82.2990000 114.4350000
  90.1859214  83.5321885 115.3299740  89.3108707  81.2138749 115.1797234
  94.6908790  80.6215784 112.8987728  94.1242276  80.7410000 114.3240000
  92.7070000  80.7410000 114.3240000  92.8280000  79.7690000 114.3550000
  92.3031057  80.1921082 115.0512381  91.9093487  81.0014789 116.6097628
  91.2204599  83.8973217 115.2867677  89.9283039  83.2435211 116.3540313
  89.5284407  84.3151457 114.9542770  89.7179448  80.2400218 114.8867150
  88.2555256  81.2682270 114.9050774  89.4405857  81.3745068 116.2536063
  94.2999904  81.4344292 112.2759391  95.7841579  80.6783141 112.9207570
  94.4733253  81.6707113 114.7823684  94.4697374  79.9204533 114.9615830
  92.4026078  81.6725210 114.3240000  93.6780000  78.3160000 114.4960000
  90.1970000  83.9360000 123.2930000  90.6350000  83.6140000 121.9750000
  92.1516870  83.7470422 121.9070128  92.7578325  82.8464892 122.8312661
  89.2270000  83.8190000 123.2730000  90.1551500  84.2970745 121.2679185
  90.3264998  82.5858257 121.7619032  92.4677786  84.7599699 122.1780657
  92.5198866  83.5140970 120.9044997  92.3232520  83.0313657 123.6868065
  92.1290000  81.1520000 128.7160000  90.0750000  82.2990000 127.6000000
  90.1859214  83.5321885 128.4949740  89.3108707  81.2138749 128.3447234
  94.6908790  80.6215784 126.0637728  94.1242276  80.7410000 127.4890000
  92.7070000  80.7410000 127.4890000  92.8280000  79.7690000 127.5200000
  92.3031057  80.1921082 128.2162381  91.9093487  81.0014789 129.7747628
  91.2204599  83.8973217 128.4517677  89.9283039  83.2435211 129.5190313
  89.5284407  84.3151457 128.1192770  89.7179448  80.2400218 128.0517150
  88.2555256  81.2682270 128.0700774  89.4405857  81.3745068 129.4186063
  94.2999904  81.4344292 125.4409391  95.7841579  80.6783141 126.0857570
  94.4733253  81.6707113 127.9473684  94.4697374  79.9204533 128.1265830
  92.4026078  81.6725210 127.4890000  93.6780000  78.3160000 127.6610000
  90.1970000  83.9360000 136.4580000  90.6350000  83.6140000 135.1400000
  92.1516870  83.7470422 135.0720128  92.7578325  82.8464892 135.9962661
  89.2270000  83.8190000 136.4380000  90.1551500  84.2970745 134.4329185
  90.3264998  82.5858257 134.9269032  92.4677786  84.7599699 135.3430657
  92.5198866  83.5140970 134.0694997  92.3232520  83.0313657 136.8518065
  92.1290000  81.1520000 141.8810000  90.0750000  82.2990000 140.7650000
  90.1859214  83.5321885 141.6599740  89.3108707  81.2138749 141.5097234
  94.6908790  80.6215784 139.2287728  94.1242276  80.7410000 140.6540000
  92.7070000  80.7410000 140.6540000  92.8280000  79.7690000 140.6850000
  92.3031057  80.1921082 141.3812381  91.9093487  81.0014789 142.9397628
  91.2204599  83.8973217 141.6167677  89.9283039  83.2435211 142.6840313
  89.5284407  84.3151457 141.2842770  89.7179448  80.2400218 141.2167150
  88.2555256  81.2682270 141.2350774  89.4405857  81.3745068 142.5836063
  94.2999904  81.4344292 138.6059391  95.7841579  80.6783141 139.2507570
  94.4733253  81.6707113 141.1123684  94.4697374  79.9204533 141.2915830
  92.4026078  81.6725210 140.6540000  93.6780000  78.3160000 140.8260000
  90.1970000  83.9360000 149.6230000  90.6350000  83.6140000 148.3050000
  92.1516870  83.7470422 148.2370128  92.7578325  82.8464892 149.1612661
  89.2270000  83.8190000 149.6030000  90.1551500  84.2970745 147.5979185
  90.3264998  82.5858257 148.0919032  92.4677786  84.7599699 148.5080657
  92.5198866  83.5140970 147.2344997  92.3232520  83.0313657 150.0168065
  92.1290000  81.1520000 155.0460000  90.0750000  82.2990000 153.9300000
  90.1859214  83.5321885 154.8249740  89.3108707  81.2138749 154.6747234
  94.6908790  80.6215784 152.3937728  94.1242276  80.7410000 153.8190000
  92.7070000  80.7410000 153.8190000  92.8280000  79.7690000 153.8500000
  92.3031057  80.1921082 154.5462381  91.9093487  81.0014789 156.1047628
  91.2204599  83.8973217 154.7817677  89.9283039  83.2435211 155.8490313
  89.5284407  84.3151457 154.4492770  89.7179448  80.2400218 154.3817150
  88.2555256  81.2682270 154.4000774  89.4405857  81.3745068 155.7486063
  94.2999904  81.4344292 151.7709391  95.7841579  80.6783141 152.4157570
  94.4733253  81.6707113 154.2773684  94.4697374  79.9204533 154.4565830
  92.4026078  81.6725210 153.8190000  93.6780000  78.3160000 153.9910000
  90.1970000  83.9360000 162.7880000  90.6350000  83.6140000 161.4700000
  92.1516870  83.7470422 161.4020128  92.7578325  82.8464892 162.3262661
  89.2270000  83.8190000 162.7680000  90.1551500  84.2970745 160.7629185
  90.3264998  82.5858257 161.2569032  92.4677786  84.7599699 161.6730657
  92.5198866  83.5140970 160.3994997  92.3232520  83.0313657 163.1818065
  92.1290000  81.1520000 168.2110000  90.0750000  82.2990000 167.0950000
  90.1859214  83.5321885 167.9899740  89.3108707  81.2138749 167.8397234
  94.6908790  80.6215784 165.5587728  94.1242276  80.7410000 166.9840000
  92.7070000  80.7410000 166.9840000  92.8280000  79.7690000 167.0150000
  92.3031057  80.1921082 167.7112381  91.9093487  81.0014789 169.2697628
  91.2204599  83.8973217 167.9467677  89.9283039  83.2435211 169.0140313
  89.5284407  84.3151457 167.6142770  89.7179448  80.2400218 167.5467150
  88.2555256  81.2682270 167.5650774  89.4405857  81.3745068 168.9136063
  94.2999904  81.4344292 164.9359391  95.7841579  80.6783141 165.5807570
  94.4733253  81.6707113 167.4423684  94.4697374  79.9204533 167.6215830
  92.4026078  81.6725210 166.9840000  93.6780000  78.3160000 167.1560000
  90.1970000  83.9360000 175.9530000  90.6350000  83.6140000 174.6350000
  92.1516870  83.7470422 174.5670128  92.7578325  82.8464892 175.4912661
  89.2270000  83.8190000 175.9330000  90.1551500  84.2970745 173.9279185
  90.3264998  82.5858257 174.4219032  92.4677786  84.7599699 174.8380657
  92.5198866  83.5140970 173.5644997  92.3232520  83.0313657 176.3468065
  92.1290000  81.1520000 181.3770000  90.0750000  82.2990000 180.2610000
  90.1859214  83.5321885 181.1559740  89.3108707  81.2138749 181.0057234
  94.6908790  80.6215784 178.7247728  94.1242276  80.7410000 180.1500000
  92.7070000  80.7410000 180.1500000  92.8280000  79.7690000 180.1810000
  92.3031057  80.1921082 180.8772381  91.9093487  81.0014789 182.4357628
  91.2204599  83.8973217 181.1127677  89.9283039  83.2435211 182.1800313
  89.5284407  84.3151457 180.7802770  89.7179448  80.2400218 180.7127150
  88.2555256  81.2682270 180.7310774  89.4405857  81.3745068 182.0796063
  94.2999904  81.4344292 178.1019391  95.7841579  80.6783141 178.7467570
  94.4733253  81.6707113 180.6083684  94.4697374  79.9204533 180.7875830
  92.4026078  81.6725210 180.1500000  93.6780000  78.3160000 180.3220000
  90.1970000  83.9360000 189.1190000  90.6350000  83.6140000 187.8010000
  92.1516870  83.7470422 187.7330128  92.7578325  82.8464892 188.6572661
  89.2270000  83.8190000 189.0990000  90.1551500  84.2970745 187.0939185
  90.3264998  82.5858257 187.5879032  92.4677786  84.7599699 188.0040657
  92.5198866  83.5140970 186.7304997  92.3232520  83.0313657 189.5128065
  92.1290000  81.1520000 194.5420000  90.0750000  82.2990000 193.4260000
  90.1859214  83.5321885 194.3209740  89.3108707  81.2138749 194.1707234
  94.6908790  80.6215784 191.8897728  94.1242276  80.7410000 193.3150000
  92.7070000  80.7410000 193.3150000  92.8280000  79.7690000 193.3460000
  92.3031057  80.1921082 194.0422381  91.9093487  81.0014789 195.6007628
  91.2204599  83.8973217 194.2777677  89.9283039  83.2435211 195.3450313
  89.5284407  84.3151457 193.9452770  89.7179448  80.2400218 193.8777150
  88.2555256  81.2682270 193.8960774  89.4405857  81.3745068 195.2446063
  94.2999904  81.4344292 191.2669391  95.7841579  80.6783141 191.9117570
  94.4733253  81.6707113 193.7733684  94.4697374  79.9204533 193.9525830
  92.4026078  81.6725210 193.3150000  93.6780000  78.3160000 193.4870000
  90.1970000  83.9360000 202.2840000  90.6350000  83.6140000 200.9660000
  92.1516870  83.7470422 200.8980128  92.7578325  82.8464892 201.8222661
  89.2270000  83.8190000 202.2640000  90.1551500  84.2970745 200.2589185
  90.3264998  82.5858257 200.7529032  92.4677786  84.7599699 201.1690657
  92.5198866  83.5140970 199.8954997  92.3232520  83.0313657 202.6778065
  92.1290000  88.4690000  76.0550000  90.0750000  89.6160000  74.9390000
  90.1859214  90.8491885  75.8339740  89.3108707  88.5308749  75.6837234
  94.6908790  87.9385784  73.4027728  94.1242276  88.0580000  74.8280000
  92.7070000  88.0580000  74.8280000  92.8280000  87.0860000  74.8590000
  92.3031057  87.5091082  75.5552381  91.9093487  88.3184789  77.1137628
  91.2204599  91.2143217  75.7907677  89.9283039  90.5605211  76.8580313
  89.5284407  91.6321457  75.4582770  89.7179448  87.5570218  75.3907150
  88.2555256  88.5852270  75.4090774  89.4405857  88.6915068  76.7576063
  94.2999904  88.7514292  72.7799391  95.7841579  87.9953141  73.4247570
  94.4733253  88.9877113  75.2863684  94.4697374  87.2374533  75.4655830
  92.4026078  88.9895210  74.8280000  93.6780000  85.6330000  75.0000000
  90.1970000  91.2530000  83.7970000  90.6350000  90.9310000  82.4790000
  92.1516870  91.0640422  82.4110128  92.7578325  90.1634892  83.3352661
  89.2270000  91.1360000  83.7770000  90.1551500  91.6140745  81.7719185
  90.3264998  89.9028257  82.2659032  92.4677786  92.0769699  82.6820657
  92.5198866  90.8310970  81.4084997  92.3232520  90.3483657  84.1908065
  92.1290000  88.4690000  89.2200000  90.0750000  89.6160000  88.1040000
  90.1859214  90.8491885  88.9989740  89.3108707  88.5308749  88.8487234
  94.6908790  87.9385784  86.5677728  94.1242276  88.0580000  87.9930000
  92.7070000  88.0580000  87.9930000  92.8280000  87.0860000  88.0240000
  92.3031057  87.5091082  88.7202381  91.9093487  88.3184789  90.2787628
  91.2204599  91.2143217  88.9557677  89.9283039  90.5605211  90.0230313
  89.5284407  91.6321457  88.6232770  89.7179448  87.5570218  88.5557150
  88.2555256  88.5852270  88.5740774  89.4405857  88.6915068  89.9226063
  94.2999904  88.7514292  85.9449391  95.7841579  87.9953141  86.5897570
  94.4733253  88.9877113  88.4513684  94.4697374  87.2374533  88.6305830
  92.4026078  88.9895210  87.9930000  93.6780000  85.6330000  88.1650000
  90.1970000  91.2530000  96.9620000  90.6350000  90.9310000  95.6440000
  92.1516870  91.0640422  95.5760128  92.7578325  90.1634892  96.5002661
  89.2270000  91.1360000  96.9420000  90.1551500  91.6140745  94.9369185
  90.3264998  89.9028257  95.4309032  92.4677786  92.0769699  95.8470657
  92.5198866  90.8310970  94.5734997  92.3232520  90.3483657  97.3558065
  92.1290000  88.4690000 102.3850000  90.0750000  89.6160000 101.2690000
  90.1859214  90.8491885 102.1639740  89.3108707  88.5308749 102.0137234
  94.6908790  87.9385784  99.7327728  94.1242276  88.0580000 101.1580000
  92.7070000  88.0580000 101.1580000  92.8280000  87.0860000 101.1890000
  92.3031057  87.5091082 101.8852381  91.9093487  88.3184789 103.4437628
  91.2204599  91.2143217 102.1207677  89.9283039  90.5605211 103.1880313
  89.5284407  91.6321457 101.7882770  89.7179448  87.5570218 101.7207150
  88.2555256  88.5852270 101.7390774  89.4405857  88.6915068 103.0876063
  94.2999904  88.7514292  99.1099391  95.7841579  87.9953141  99.7547570
  94.4733253  88.9877113 101.6163684  94.4697374  87.2374533 101.7955830
  92.4026078  88.9895210 101.1580000  93.6780000  85.6330000 101.3300000
  90.1970000  91.2530000 110.1270000  90.6350000  90.9310000 108.8090000
  92.1516870  91.0640422 108.7410128  92.7578325  90.1634892 109.6652661
  89.2270000  91.1360000 110.1070000  90.1551500  91.6140745 108.1019185
  90.3264998  89.9028257 108.5959032  92.4677786  92.0769699 109.0120657
  92.5198866  90.8310970 107.7384997  92.3232520  90.3483657 110.5208065
  92.1290000  88.4690000 115.5510000  90.0750000  89.6160000 114.4350000
  90.1859214  90.8491885 115.3299740  89.3108707  88.5308749 115.1797234
  94.6908790  87.9385784 112.8987728  94.1242276  88.0580000 114.3240000
  92.7070000  88.0580000 114.3240000  92.8280000  87.0860000 114.3550000
  92.3031057  87.5091082 115.0512381  91.9093487  88.3184789 116.6097628
  91.2204599  91.2143217 115.2867677  89.9283039  90.5605211 116.3540313
  89.5284407  91.6321457 114.9542770  89.7179448  87.5570218 114.8867150
  88.2555256  88.5852270 114.9050774  89.4405857  88.6915068 116.2536063
  94.2999904  88.7514292 112.2759391  95.7841579  87.9953141 112.9207570
  94.4733253  88.9877113 114.7823684  94.4697374  87.2374533 114.9615830
  92.4026078  88.9895210 114.3240000  93.6780000  85.6330000 114.4960000
  90.1970000  91.2530000 123.2930000  90.6350000  90.9310000 121.9750000
  92.1516870  91.0640422 121.9070128  92.7578325  90.1634892 122.8312661
  89.2270000  91.1360000 123.2730000  90.1551500  91.6140745 121.2679185
  90.3264998  89.9028257 121.7619032  92.4677786  92.0769699 122.1780657
  92.5198866  90.8310970 120.9044997  92.3232520  90.3483657 123.6868065
  92.1290000  88.4690000 128.7160000  90.0750000  89.6160000 127.6000000
  90.1859214  90.8491885 128.4949740  89.3108707  88.5308749 128.3447234
  94.6908790  87.9385784 126.0637728  94.1242276  88.0580000 127.4890000
  92.7070000  88.0580000 127.4890000  92.8280000  87.0860000 127.5200000
  92.3031057  87.5091082 128.2162381  91.9093487  88.3184789 129.7747628
  91.2204599  91.2143217 128.4517677  89.9283039  90.5605211 129.5190313
  89.5284407  91.6321457 128.1192770  89.7179448  87.5570218 128.0517150
  88.2555256  88.5852270 128.0700774  89.4405857  88.6915068 129.4186063
  94.2999904  88.7514292 125.4409391  95.7841579  87.9953141 126.0857570
  94.4733253  88.9877113 127.9473684  94.4697374  87.2374533 128.1265830
  92.4026078  88.9895210 127.4890000  93.6780000  85.6330000 127.6610000
  90.1970000  91.2530000 136.4580000  90.6350000  90.9310000 135.1400000
  92.1516870  91.0640422 135.0720128  92.7578325  90.1634892 135.9962661
  89.2270000  91.1360000 136.4380000  90.1551500  91.6140745 134.4329185
  90.3264998  89.9028257 134.9269032  92.4677786  92.0769699 135.3430657
  92.5198866  90.8310970 134.0694997  92.3232520  90.3483657 136.8518065
  92.1290000  88.4690000 141.8810000  90.0750000  89.6160000 140.7650000
  90.1859214  90.8491885 141.6599740  89.3108707  88.5308749 141.5097234
  94.6908790  87.9385784 139.2287728  94.1242276  88.0580000 140.6540000
  92.7070000  88.0580000 140.6540000  92.8280000  87.0860000 140.6850000
  92.3031057  87.5091082 141.3812381  91.9093487  88.3184789 142.9397628
  91.2204599  91.2143217 141.6167677  89.9283039  90.5605211 142.6840313
  89.5284407  91.6321457 141.2842770  89.7179448  87.5570218 141.2167150
  88.2555256  88.5852270 141.2350774  89.4405857  88.6915068 142.5836063
  94.2999904  88.7514292 138.6059391  95.7841579  87.9953141 139.2507570
  94.4733253  88.9877113 141.1123684  94.4697374  87.2374533 141.2915830
  92.4026078  88.9895210 140.6540000  93.6780000  85.6330000 140.8260000
  90.1970000  91.2530000 149.6230000  90.6350000  90.9310000 148.3050000
  92.1516870  91.0640422 148.2370128  92.7578325  90.1634892 149.1612661
  89.2270000  91.1360000 149.6030000  90.1551500  91.6140745 147.5979185
  90.3264998  89.9028257 148.0919032  92.4677786  92.0769699 148.5080657
  92.5198866  90.8310970 147.2344997  92.3232520  90.3483657 150.0168065
  92.1290000  88.4690000 155.0460000  90.0750000  89.6160000 153.9300000
  90.1859214  90.8491885 154.8249740  89.3108707  88.5308749 154.6747234
  94.6908790  87.9385784 152.3937728  94.1242276  88.0580000 153.8190000
  92.7070000  88.0580000 153.8190000  92.8280000  87.0860000 153.8500000
  92.3031057  87.5091082 154.5462381  91.9093487  88.3184789 156.1047628
  91.2204599  91.2143217 154.7817677  89.9283039  90.5605211 155.8490313
  89.5284407  91.6321457 154.4492770  89.7179448  87.5570218 154.3817150
  88.2555256  88.5852270 154.4000774  89.4405857  88.6915068 155.7486063
  94.2999904  88.7514292 151.7709391  95.7841579  87.9953141 152.4157570
  94.4733253  88.9877113 154.2773684  94.4697374  87.2374533 154.4565830
  92.4026078  88.9895210 153.8190000  93.6780000  85.6330000 153.9910000
  90.1970000  91.2530000 162.7880000  90.6350000  90.9310000 161.4700000
  92.1516870  91.0640422 161.4020128  92.7578325  90.1634892 162.3262661
  89.2270000  91.1360000 162.7680000  90.1551500  91.6140745 160.7629185
  90.3264998  89.9028257 161.2569032  92.4677786  92.0769699 161.6730657
  92.5198866  90.8310970 160.3994997  92.3232520  90.3483657 163.1818065
  92.1290000  88.4690000 168.2110000  90.0750000  89.6160000 167.0950000
  90.1859214  90.8491885 167.9899740  89.3108707  88.5308749 167.8397234
  94.6908790  87.9385784 165.5587728  94.1242276  88.0580000 166.9840000
  92.7070000  88.0580000 166.9840000  92.8280000  87.0860000 167.0150000
  92.3031057  87.5091082 167.7112381  91.9093487  88.3184789 169.2697628
  91.2204599  91.2143217 167.9467677  89.9283039  90.5605211 169.0140313
  89.5284407  91.6321457 167.6142770  89.7179448  87.5570218 167.5467150
  88.2555256  88.5852270 167.5650774  89.4405857  88.6915068 168.9136063
  94.2999904  88.7514292 164.9359391  95.7841579  87.9953141 165.5807570
  94.4733253  88.9877113 167.4423684  94.4697374  87.2374533 167.6215830
  92.4026078  88.9895210 166.9840000  93.6780000  85.6330000 167.1560000
  90.1970000  91.2530000 175.9530000  90.6350000  90.9310000 174.6350000
  92.1516870  91.0640422 174.5670128  92.7578325  90.1634892 175.4912661
  89.2270000  91.1360000 175.9330000  90.1551500  91.6140745 173.9279185
  90.3264998  89.9028257 174.4219032  92.4677786  92.0769699 174.8380657
  92.5198866  90.8310970 173.5644997  92.3232520  90.3483657 176.3468065
  92.1290000  88.4690000 181.3770000  90.0750000  89.6160000 180.2610000
  90.1859214  90.8491885 181.1559740  89.3108707  88.5308749 181.0057234
  94.6908790  87.9385784 178.7247728  94.1242276  88.0580000 180.1500000
  92.7070000  88.0580000 180.1500000  92.8280000  87.0860000 180.1810000
  92.3031057  87.5091082 180.8772381  91.9093487  88.3184789 182.4357628
  91.2204599  91.2143217 181.1127677  89.9283039  90.5605211 182.1800313
  89.5284407  91.6321457 180.7802770  89.7179448  87.5570218 180.7127150
  88.2555256  88.5852270 180.7310774  89.4405857  88.6915068 182.0796063
  94.2999904  88.7514292 178.1019391  95.7841579  87.9953141 178.7467570
  94.4733253  88.9877113 180.6083684  94.4697374  87.2374533 180.7875830
  92.4026078  88.9895210 180.1500000  93.6780000  85.6330000 180.3220000
  90.1970000  91.2530000 189.1190000  90.6350000  90.9310000 187.8010000
  92.1516870  91.0640422 187.7330128  92.7578325  90.1634892 188.6572661
  89.2270000  91.1360000 189.0990000  90.1551500  91.6140745 187.0939185
  90.3264998  89.9028257 187.5879032  92.4677786  92.0769699 188.0040657
  92.5198866  90.8310970 186.7304997  92.3232520  90.3483657 189.5128065
  92.1290000  88.4690000 194.5420000  90.0750000  89.6160000 193.4260000
  90.1859214  90.8491885 194.3209740  89.3108707  88.5308749 194.1707234
  94.6908790  87.9385784 191.8897728  94.1242276  88.0580000 193.3150000
  92.7070000  88.0580000 193.3150000  92.8280000  87.0860000 193.3460000
  92.3031057  87.5091082 194.0422381  91.9093487  88.3184789 195.6007628
  91.2204599  91.2143217 194.2777677  89.9283039  90.5605211 195.3450313
  89.5284407  91.6321457 193.9452770  89.7179448  87.5570218 193.8777150
  88.2555256  88.5852270 193.8960774  89.4405857  88.6915068 195.2446063
  94.2999904  88.7514292 191.2669391  95.7841579  87.9953141 191.9117570
  94.4733253  88.9877113 193.7733684  94.4697374  87.2374533 193.9525830
  92.4026078  88.9895210 193.3150000  93.6780000  85.6330000 193.4870000
  90.1970000  91.2530000 202.2840000  90.6350000  90.9310000 200.9660000
  92.1516870  91.0640422 200.8980128  92.7578325  90.1634892 201.8222661
  89.2270000  91.1360000 202.2640000  90.1551500  91.6140745 200.2589185
  90.3264998  89.9028257 200.7529032  92.4677786  92.0769699 201.1690657
  92.5198866  90.8310970 199.8954997  92.3232520  90.3483657 202.6778065
  92.1290000  95.7850000  76.0550000  90.0750000  96.9320000  74.9390000
  90.1859214  98.1651885  75.8339740  89.3108707  95.8468749  75.6837234
  94.6908790  95.2545784  73.4027728  94.1242276  95.3740000  74.8280000
  92.7070000  95.3740000  74.8280000  92.8280000  94.4020000  74.8590000
  92.3031057  94.8251082  75.5552381  91.9093487  95.6344789  77.1137628
  91.2204599  98.5303217  75.7907677  89.9283039  97.8765211  76.8580313
  89.5284407  98.9481457  75.4582770  89.7179448  94.8730218  75.3907150
  88.2555256  95.9012270  75.4090774  89.4405857  96.0075068  76.7576063
  94.2999904  96.0674292  72.7799391  95.7841579  95.3113141  73.4247570
  94.4733253  96.3037113  75.2863684  94.4697374  94.5534533  75.4655830
  92.4026078  96.3055210  74.8280000  93.6780000  92.9490000  75.0000000
  90.1970000  98.5690000  83.7970000  90.6350000  98.2470000  82.4790000
  92.1516870  98.3800422  82.4110128  92.7578325  97.4794892  83.3352661
  89.2270000  98.4520000  83.7770000  90.1551500  98.9300745  81.7719185
  90.3264998  97.2188257  82.2659032  92.4677786  99.3929699  82.6820657
  92.5198866  98.1470970  81.4084997  92.3232520  97.6643657  84.1908065
  92.1290000  95.7850000  89.2200000  90.0750000  96.9320000  88.1040000
  90.1859214  98.1651885  88.9989740  89.3108707  95.8468749  88.8487234
  94.6908790  95.2545784  86.5677728  94.1242276  95.3740000  87.9930000
  92.7070000  95.3740000  87.9930000  92.8280000  94.4020000  88.0240000
  92.3031057  94.8251082  88.7202381  91.9093487  95.6344789  90.2787628
  91.2204599  98.5303217  88.9557677  89.9283039  97.8765211  90.0230313
  89.5284407  98.9481457  88.6232770  89.7179448  94.8730218  88.5557150
  88.2555256  95.9012270  88.5740774  89.4405857  96.0075068  89.9226063
  94.2999904  96.0674292  85.9449391  95.7841579  95.3113141  86.5897570
  94.4733253  96.3037113  88.4513684  94.4697374  94.5534533  88.6305830
  92.4026078  96.3055210  87.9930000  93.6780000  92.9490000  88.1650000
  90.1970000  98.5690000  96.9620000  90.6350000  98.2470000  95.6440000
  92.1516870  98.3800422  95.5760128  92.7578325  97.4794892  96.5002661
  89.2270000  98.4520000  96.9420000  90.1551500  98.9300745  94.9369185
  90.3264998  97.2188257  95.4309032  92.4677786  99.3929699  95.8470657
  92.5198866  98.1470970  94.5734997  92.3232520  97.6643657  97.3558065
  92.1290000  95.7850000 102.3850000  90.0750000  96.9320000 101.2690000
  90.1859214  98.1651885 102.1639740  89.3108707  95.8468749 102.0137234
  94.6908790  95.2545784  99.7327728  94.1242276  95.3740000 101.1580000
  92.7070000  95.3740000 101.1580000  92.8280000  94.4020000 101.1890000
  92.3031057  94.8251082 101.8852381  91.9093487  95.6344789 103.4437628
  91.2204599  98.5303217 102.1207677  89.9283039  97.8765211 103.1880313
  89.5284407  98.9481457 101.7882770  89.7179448  94.8730218 101.7207150
  88.2555256  95.9012270 101.7390774  89.4405857  96.0075068 103.0876063
  94.2999904  96.0674292  99.1099391  95.7841579  95.3113141  99.7547570
  94.4733253  96.3037113 101.6163684  94.4697374  94.5534533 101.7955830
  92.4026078  96.3055210 101.1580000  93.6780000  92.9490000 101.3300000
  90.1970000  98.5690000 110.1270000  90.6350000  98.2470000 108.8090000
  92.1516870  98.3800422 108.7410128  92.7578325  97.4794892 109.6652661
  89.2270000  98.4520000 110.1070000  90.1551500  98.9300745 108.1019185
  90.3264998  97.2188257 108.5959032  92.4677786  99.3929699 109.0120657
  92.5198866  98.1470970 107.7384997  92.3232520  97.6643657 110.5208065
  92.1290000  95.7850000 115.5510000  90.0750000  96.9320000 114.4350000
  90.1859214  98.1651885 115.3299740  89.3108707  95.8468749 115.1797234
  94.6908790  95.2545784 112.8987728  94.1242276  95.3740000 114.3240000
  92.7070000  95.3740000 114.3240000  92.8280000  94.4020000 114.3550000
  92.3031057  94.8251082 115.0512381  91.9093487  95.6344789 116.6097628
  91.2204599  98.5303217 115.2867677  89.9283039  97.8765211 116.3540313
  89.5284407  98.9481457 114.9542770  89.7179448  94.8730218 114.8867150
  88.2555256  95.9012270 114.9050774  89.4405857  96.0075068 116.2536063
  94.2999904  96.0674292 112.2759391  95.7841579  95.3113141 112.9207570
  94.4733253  96.3037113 114.7823684  94.4697374  94.5534533 114.9615830
  92.4026078  96.3055210 114.3240000  93.6780000  92.9490000 114.4960000
  90.1970000  98.5690000 123.2930000  90.6350000  98.2470000 121.9750000
  92.1516870  98.3800422 121.9070128  92.7578325  97.4794892 122.8312661
  89.2270000  98.4520000 123.2730000  90.1551500  98.9300745 121.2679185
  90.3264998  97.2188257 121.7619032  92.4677786  99.3929699 122.1780657
  92.5198866  98.1470970 120.9044997  92.3232520  97.6643657 123.6868065
  92.1290000  95.7850000 128.7160000  90.0750000  96.9320000 127.6000000
  90.1859214  98.1651885 128.4949740  89.3108707  95.8468749 128.3447234
  94.6908790  95.2545784 126.0637728  94.1242276  95.3740000 127.4890000
  92.7070000  95.3740000 127.4890000  92.8280000  94.4020000 127.5200000
  92.3031057  94.8251082 128.2162381  91.9093487  95.6344789 129.7747628
  91.2204599  98.5303217 128.4517677  89.9283039  97.8765211 129.5190313
  89.5284407  98.9481457 128.1192770  89.7179448  94.8730218 128.0517150
  88.2555256  95.9012270 128.0700774  89.4405857  96.0075068 129.4186063
  94.2999904  96.0674292 125.4409391  95.7841579  95.3113141 126.0857570
  94.4733253  96.3037113 127.9473684  94.4697374  94.5534533 128.1265830
  92.4026078  96.3055210 127.4890000  93.6780000  92.9490000 127.6610000
  90.1970000  98.5690000 136.4580000  90.6350000  98.2470000 135.1400000
  92.1516870  98.3800422 135.0720128  92.7578325  97.4794892 135.9962661
  89.2270000  98.4520000 136.4380000  90.1551500  98.9300745 134.4329185
  90.3264998  97.2188257 134.9269032  92.4677786  99.3929699 135.3430657
  92.5198866  98.1470970 134.0694997  92.3232520  97.6643657 136.8518065
  92.1290000  95.7850000 141.8810000  90.0750000  96.9320000 140.7650000
  90.1859214  98.1651885 141.6599740  89.3108707  95.8468749 141.5097234
  94.6908790  95.2545784 139.2287728  94.1242276  95.3740000 140.6540000
  92.7070000  95.3740000 140.6540000  92.8280000  94.4020000 140.6850000
  92.3031057  94.8251082 141.3812381  91.9093487  95.6344789 142.9397628
  91.2204599  98.5303217 141.6167677  89.9283039  97.8765211 142.6840313
  89.5284407  98.9481457 141.2842770  89.7179448  94.8730218 141.2167150
  88.2555256  95.9012270 141.2350774  89.4405857  96.0075068 142.5836063
  94.2999904  96.0674292 138.6059391  95.7841579  95.3113141 139.2507570
  94.4733253  96.3037113 141.1123684  94.4697374  94.5534533 141.2915830
  92.4026078  96.3055210 140.6540000  93.6780000  92.9490000 140.8260000
  90.1970000  98.5690000 149.6230000  90.6350000  98.2470000 148.3050000
  92.1516870  98.3800422 148.2370128  92.7578325  97.4794892 149.1612661
  89.2270000  98.4520000 149.6030000  90.1551500  98.9300745 147.5979185
  90.3264998  97.2188257 148.0919032  92.4677786  99.3929699 148.5080657
  92.5198866  98.1470970 147.2344997  92.3232520  97.6643657 150.0168065
  92.1290000  95.7850000 155.0460000  90.0750000  96.9320000 153.9300000
  90.1859214  98.1651885 154.8249740  89.3108707  95.8468749 154.6747234
  94.6908790  95.2545784 152.3937728  94.1242276  95.3740000 153.8190000
  92.7070000  95.3740000 153.8190000  92.8280000  94.4020000 153.8500000
  92.3031057  94.8251082 154.5462381  91.9093487  95.6344789 156.1047628
  91.2204599  98.5303217 154.7817677  89.9283039  97.8765211 155.8490313
  89.5284407  98.9481457 154.4492770  89.7179448  94.8730218 154.3817150
  88.2555256  95.9012270 154.4000774  89.4405857  96.0075068 155.7486063
  94.2999904  96.0674292 151.7709391  95.7841579  95.3113141 152.4157570
  94.4733253  96.3037113 154.2773684  94.4697374  94.5534533 154.4565830
  92.4026078  96.3055210 153.8190000  93.6780000  92.9490000 153.9910000
  90.1970000  98.5690000 162.7880000  90.6350000  98.2470000 161.4700000
  92.1516870  98.3800422 161.4020128  92.7578325  97.4794892 162.3262661
  89.2270000  98.4520000 162.7680000  90.1551500  98.9300745 160.7629185
  90.3264998  97.2188257 161.2569032  92.4677786  99.3929699 161.6730657
  92.5198866  98.1470970 160.3994997  92.3232520  97.6643657 163.1818065
  92.1290000  95.7850000 168.2110000  90.0750000  96.9320000 167.0950000
  90.1859214  98.1651885 167.9899740  89.3108707  95.8468749 167.8397234
  94.6908790  95.2545784 165.5587728  94.1242276  95.3740000 166.9840000
  92.7070000  95.3740000 166.9840000  92.8280000  94.4020000 167.0150000
  92.3031057  94.8251082 167.7112381  91.9093487  95.6344789 169.2697628
  91.2204599  98.5303217 167.9467677  89.9283039  97.8765211 169.0140313
  89.5284407  98.9481457 167.6142770  89.7179448  94.8730218 167.5467150
  88.2555256  95.9012270 167.5650774  89.4405857  96.0075068 168.9136063
  94.2999904  96.0674292 164.9359391  95.7841579  95.3113141 165.5807570
  94.4733253  96.3037113 167.4423684  94.4697374  94.5534533 167.6215830
  92.4026078  96.3055210 166.9840000  93.6780000  92.9490000 167.1560000
  90.1970000  98.5690000 175.9530000  90.6350000  98.2470000 174.6350000
  92.1516870  98.3800422 174.5670128  92.7578325  97.4794892 175.4912661
  89.2270000  98.4520000 175.9330000  90.1551500  98.9300745 173.9279185
  90.3264998  97.2188257 174.4219032  92.4677786  99.3929699 174.8380657
  92.5198866  98.1470970 173.5644997  92.3232520  97.6643657 176.3468065
  92.1290000  95.7850000 181.3770000  90.0750000  96.9320000 180.2610000
  90.1859214  98.1651885 181.1559740  89.3108707  95.8468749 181.0057234
  94.6908790  95.2545784 178.7247728  94.1242276  95.3740000 180.1500000
  92.7070000  95.3740000 180.1500000  92.8280000  94.4020000 180.1810000
  92.3031057  94.8251082 180.8772381  91.9093487  95.6344789 182.4357628
  91.2204599  98.5303217 181.1127677  89.9283039  97.8765211 182.1800313
  89.5284407  98.9481457 180.7802770  89.7179448  94.8730218 180.7127150
  88.2555256  95.9012270 180.7310774  89.4405857  96.0075068 182.0796063
  94.2999904  96.0674292 178.1019391  95.7841579  95.3113141 178.7467570
  94.4733253  96.3037113 180.6083684  94.4697374  94.5534533 180.7875830
  92.4026078  96.3055210 180.1500000  93.6780000  92.9490000 180.3220000
  90.1970000  98.5690000 189.1190000  90.6350000  98.2470000 187.8010000
  92.1516870  98.3800422 187.7330128  92.7578325  97.4794892 188.6572661
  89.2270000  98.4520000 189.0990000  90.1551500  98.9300745 187.0939185
  90.3264998  97.2188257 187.5879032  92.4677786  99.3929699 188.0040657
  92.5198866  98.1470970 186.7304997  92.3232520  97.6643657 189.5128065
  92.1290000  95.7850000 194.5420000  90.0750000  96.9320000 193.4260000
  90.1859214  98.1651885 194.3209740  89.3108707  95.8468749 194.1707234
  94.6908790  95.2545784 191.8897728  94.1242276  95.3740000 193.3150000
  92.7070000  95.3740000 193.3150000  92.8280000  94.4020000 193.3460000
  92.3031057  94.8251082 194.0422381  91.9093487  95.6344789 195.6007628
  91.2204599  98.5303217 194.2777677  89.9283039  97.8765211 195.3450313
  89.5284407  98.9481457 193.9452770  89.7179448  94.8730218 193.8777150
  88.2555256  95.9012270 193.8960774  89.4405857  96.0075068 195.2446063
  94.2999904  96.0674292 191.2669391  95.7841579  95.3113141 191.9117570
  94.4733253  96.3037113 193.7733684  94.4697374  94.5534533 193.9525830
  92.4026078  96.3055210 193.3150000  93.6780000  92.9490000 193.4870000
  90.1970000  98.5690000 202.2840000  90.6350000  98.2470000 200.9660000
  92.1516870  98.3800422 200.8980128  92.7578325  97.4794892 201.8222661
  89.2270000  98.4520000 202.2640000  90.1551500  98.9300745 200.2589185
  90.3264998  97.2188257 200.7529032  92.4677786  99.3929699 201.1690657
  92.5198866  98.1470970 199.8954997  92.3232520  97.6643657 202.6778065
  92.1290000 103.1020000  76.0550000  90.0750000 104.2490000  74.9390000
  90.1859214 105.4821885  75.8339740  89.3108707 103.1638749  75.6837234
  94.6908790 102.5715784  73.4027728  94.1242276 102.6910000  74.8280000
  92.7070000 102.6910000  74.8280000  92.8280000 101.7190000  74.8590000
  92.3031057 102.1421082  75.5552381  91.9093487 102.9514789  77.1137628
  91.2204599 105.8473217  75.7907677  89.9283039 105.1935211  76.8580313
  89.5284407 106.2651457  75.4582770  89.7179448 102.1900218  75.3907150
  88.2555256 103.2182270  75.4090774  89.4405857 103.3245068  76.7576063
  94.2999904 103.3844292  72.7799391  95.7841579 102.6283141  73.4247570
  94.4733253 103.6207113  75.2863684  94.4697374 101.8704533  75.4655830
  92.4026078 103.6225210  74.8280000  93.6780000 100.2660000  75.0000000
  90.1970000 105.8860000  83.7970000  90.6350000 105.5640000  82.4790000
  92.1516870 105.6970422  82.4110128  92.7578325 104.7964892  83.3352661
  89.2270000 105.7690000  83.7770000  90.1551500 106.2470745  81.7719185
  90.3264998 104.5358257  82.2659032  92.4677786 106.7099699  82.6820657
  92.5198866 105.4640970  81.4084997  92.3232520 104.9813657  84.1908065
  92.1290000 103.1020000  89.2200000  90.0750000 104.2490000  88.1040000
  90.1859214 105.4821885  88.9989740  89.3108707 103.1638749  88.8487234
  94.6908790 102.5715784  86.5677728  94.1242276 102.6910000  87.9930000
  92.7070000 102.6910000  87.9930000  92.8280000 101.7190000  88.0240000
  92.3031057 102.1421082  88.7202381  91.9093487 102.9514789  90.2787628
  91.2204599 105.8473217  88.9557677  89.9283039 105.1935211  90.0230313
  89.5284407 106.2651457  88.6232770  89.7179448 102.1900218  88.5557150
  88.2555256 103.2182270  88.5740774  89.4405857 103.3245068  89.9226063
  94.2999904 103.3844292  85.9449391  95.7841579 102.6283141  86.5897570
  94.4733253 103.6207113  88.4513684  94.4697374 101.8704533  88.6305830
  92.4026078 103.6225210  87.9930000  93.6780000 100.2660000  88.1650000
  90.1970000 105.8860000  96.9620000  90.6350000 105.5640000  95.6440000
  92.1516870 105.6970422  95.5760128  92.7578325 104.7964892  96.5002661
  89.2270000 105.7690000  96.9420000  90.1551500 106.2470745  94.9369185
  90.3264998 104.5358257  95.4309032  92.4677786 106.7099699  95.8470657
  92.5198866 105.4640970  94.5734997  92.3232520 104.9813657  97.3558065
  92.1290000 103.1020000 102.3850000  90.0750000 104.2490000 101.2690000
  90.1859214 105.4821885 102.1639740  89.3108707 103.1638749 102.0137234
  94.6908790 102.5715784  99.7327728  94.1242276 102.6910000 101.1580000
  92.7070000 102.6910000 101.1580000  92.8280000 101.7190000 101.1890000
  92.3031057 102.1421082 101.8852381  91.9093487 102.9514789 103.4437628
  91.2204599 105.8473217 102.1207677  89.9283039 105.1935211 103.1880313
  89.5284407 106.2651457 101.7882770  89.7179448 102.1900218 101.7207150
  88.2555256 103.2182270 101.7390774  89.4405857 103.3245068 103.0876063
  94.2999904 103.3844292  99.1099391  95.7841579 102.6283141  99.7547570
  94.4733253 103.6207113 101.6163684  94.4697374 101.8704533 101.7955830
  92.4026078 103.6225210 101.1580000  93.6780000 100.2660000 101.3300000
  90.1970000 105.8860000 110.1270000  90.6350000 105.5640000 108.8090000
  92.1516870 105.6970422 108.7410128  92.7578325 104.7964892 109.6652661
  89.2270000 105.7690000 110.1070000  90.1551500 106.2470745 108.1019185
  90.3264998 104.5358257 108.5959032  92.4677786 106.7099699 109.0120657
  92.5198866 105.4640970 107.7384997  92.3232520 104.9813657 110.5208065
  92.1290000 103.1020000 115.5510000  90.0750000 104.2490000 114.4350000
  90.1859214 105.4821885 115.3299740  89.3108707 103.1638749 115.1797234
  94.6908790 102.5715784 112.8987728  94.1242276 102.6910000 114.3240000
  92.7070000 102.6910000 114.3240000  92.8280000 101.7190000 114.3550000
  92.3031057 102.1421082 115.0512381  91.9093487 102.9514789 116.6097628
  91.2204599 105.8473217 115.2867677  89.9283039 105.1935211 116.3540313
  89.5284407 106.2651457 114.9542770  89.7179448 102.1900218 114.8867150
  88.2555256 103.2182270 114.9050774  89.4405857 103.3245068 116.2536063
  94.2999904 103.3844292 112.2759391  95.7841579 102.6283141 112.9207570
  94.4733253 103.6207113 114.7823684  94.4697374 101.8704533 114.9615830
  92.4026078 103.6225210 114.3240000  93.6780000 100.2660000 114.4960000
  90.1970000 105.8860000 123.2930000  90.6350000 105.5640000 121.9750000
  92.1516870 105.6970422 121.9070128  92.7578325 104.7964892 122.8312661
  89.2270000 105.7690000 123.2730000  90.1551500 106.2470745 121.2679185
  90.3264998 104.5358257 121.7619032  92.4677786 106.7099699 122.1780657
  92.5198866 105.4640970 120.9044997  92.3232520 104.9813657 123.6868065
  92.1290000 103.1020000 128.7160000  90.0750000 104.2490000 127.6000000
  90.1859214 105.4821885 128.4949740  89.3108707 103.1638749 128.3447234
  94.6908790 102.5715784 126.0637728  94.1242276 102.6910000 127.4890000
  92.7070000 102.6910000 127.4890000  92.8280000 101.7190000 127.5200000
  92.3031057 102.1421082 128.2162381  91.9093487 102.9514789 129.7747628
  91.2204599 105.8473217 128.4517677  89.9283039 105.1935211 129.5190313
  89.5284407 106.2651457 128.1192770  89.7179448 102.1900218 128.0517150
  88.2555256 103.2182270 128.0700774  89.4405857 103.3245068 129.4186063
  94.2999904 103.3844292 125.4409391  95.7841579 102.6283141 126.0857570
  94.4733253 103.6207113 127.9473684  94.4697374 101.8704533 128.1265830
  92.4026078 103.6225210 127.4890000  93.6780000 100.2660000 127.6610000
  90.1970000 105.8860000 136.4580000  90.6350000 105.5640000 135.1400000
  92.1516870 105.6970422 135.0720128  92.7578325 104.7964892 135.9962661
  89.2270000 105.7690000 136.4380000  90.1551500 106.2470745 134.4329185
  90.3264998 104.5358257 134.9269032  92.4677786 106.7099699 135.3430657
  92.5198866 105.4640970 134.0694997  92.3232520 104.9813657 136.8518065
  92.1290000 103.1020000 141.8810000  90.0750000 104.2490000 140.7650000
  90.1859214 105.4821885 141.6599740  89.3108707 103.1638749 141.5097234
  94.6908790 102.5715784 139.2287728  94.1242276 102.6910000 140.6540000
  92.7070000 102.6910000 140.6540000  92.8280000 101.7190000 140.6850000
  92.3031057 102.1421082 141.3812381  91.9093487 102.9514789 142.9397628
  91.2204599 105.8473217 141.6167677  89.9283039 105.1935211 142.6840313
  89.5284407 106.2651457 141.2842770  89.7179448 102.1900218 141.2167150
  88.2555256 103.2182270 141.2350774  89.4405857 103.3245068 142.5836063
  94.2999904 103.3844292 138.6059391  95.7841579 102.6283141 139.2507570
  94.4733253 103.6207113 141.1123684  94.4697374 101.8704533 141.2915830
  92.4026078 103.6225210 140.6540000  93.6780000 100.2660000 140.8260000
  90.1970000 105.8860000 149.6230000  90.6350000 105.5640000 148.3050000
  92.1516870 105.6970422 148.2370128  92.7578325 104.7964892 149.1612661
  89.2270000 105.7690000 149.6030000  90.1551500 106.2470745 147.5979185
  90.3264998 104.5358257 148.0919032  92.4677786 106.7099699 148.5080657
  92.5198866 105.4640970 147.2344997  92.3232520 104.9813657 150.0168065
  92.1290000 103.1020000 155.0460000  90.0750000 104.2490000 153.9300000
  90.1859214 105.4821885 154.8249740  89.3108707 103.1638749 154.6747234
  94.6908790 102.5715784 152.3937728  94.1242276 102.6910000 153.8190000
  92.7070000 102.6910000 153.8190000  92.8280000 101.7190000 153.8500000
  92.3031057 102.1421082 154.5462381  91.9093487 102.9514789 156.1047628
  91.2204599 105.8473217 154.7817677  89.9283039 105.1935211 155.8490313
  89.5284407 106.2651457 154.4492770  89.7179448 102.1900218 154.3817150
  88.2555256 103.2182270 154.4000774  89.4405857 103.3245068 155.7486063
  94.2999904 103.3844292 151.7709391  95.7841579 102.6283141 152.4157570
  94.4733253 103.6207113 154.2773684  94.4697374 101.8704533 154.4565830
  92.4026078 103.6225210 153.8190000  93.6780000 100.2660000 153.9910000
  90.1970000 105.8860000 162.7880000  90.6350000 105.5640000 161.4700000
  92.1516870 105.6970422 161.4020128  92.7578325 104.7964892 162.3262661
  89.2270000 105.7690000 162.7680000  90.1551500 106.2470745 160.7629185
  90.3264998 104.5358257 161.2569032  92.4677786 106.7099699 161.6730657
  92.5198866 105.4640970 160.3994997  92.3232520 104.9813657 163.1818065
  92.1290000 103.1020000 168.2110000  90.0750000 104.2490000 167.0950000
  90.1859214 105.4821885 167.9899740  89.3108707 103.1638749 167.8397234
  94.6908790 102.5715784 165.5587728  94.1242276 102.6910000 166.9840000
  92.7070000 102.6910000 166.9840000  92.8280000 101.7190000 167.0150000
  92.3031057 102.1421082 167.7112381  91.9093487 102.9514789 169.2697628
  91.2204599 105.8473217 167.9467677  89.9283039 105.1935211 169.0140313
  89.5284407 106.2651457 167.6142770  89.7179448 102.1900218 167.5467150
  88.2555256 103.2182270 167.5650774  89.4405857 103.3245068 168.9136063
  94.2999904 103.3844292 164.9359391  95.7841579 102.6283141 165.5807570
  94.4733253 103.6207113 167.4423684  94.4697374 101.8704533 167.6215830
  92.4026078 103.6225210 166.9840000  93.6780000 100.2660000 167.1560000
  90.1970000 105.8860000 175.9530000  90.6350000 105.5640000 174.6350000
  92.1516870 105.6970422 174.5670128  92.7578325 104.7964892 175.4912661
  89.2270000 105.7690000 175.9330000  90.1551500 106.2470745 173.9279185
  90.3264998 104.5358257 174.4219032  92.4677786 106.7099699 174.8380657
  92.5198866 105.4640970 173.5644997  92.3232520 104.9813657 176.3468065
  92.1290000 103.1020000 181.3770000  90.0750000 104.2490000 180.2610000
  90.1859214 105.4821885 181.1559740  89.3108707 103.1638749 181.0057234
  94.6908790 102.5715784 178.7247728  94.1242276 102.6910000 180.1500000
  92.7070000 102.6910000 180.1500000  92.8280000 101.7190000 180.1810000
  92.3031057 102.1421082 180.8772381  91.9093487 102.9514789 182.4357628
  91.2204599 105.8473217 181.1127677  89.9283039 105.1935211 182.1800313
  89.5284407 106.2651457 180.7802770  89.7179448 102.1900218 180.7127150
  88.2555256 103.2182270 180.7310774  89.4405857 103.3245068 182.0796063
  94.2999904 103.3844292 178.1019391  95.7841579 102.6283141 178.7467570
  94.4733253 103.6207113 180.6083684  94.4697374 101.8704533 180.7875830
  92.4026078 103.6225210 180.1500000  93.6780000 100.2660000 180.3220000
  90.1970000 105.8860000 189.1190000  90.6350000 105.5640000 187.8010000
  92.1516870 105.6970422 187.7330128  92.7578325 104.7964892 188.6572661
  89.2270000 105.7690000 189.0990000  90.1551500 106.2470745 187.0939185
  90.3264998 104.5358257 187.5879032  92.4677786 106.7099699 188.0040657
  92.5198866 105.4640970 186.7304997  92.3232520 104.9813657 189.5128065
  92.1290000 103.1020000 194.5420000  90.0750000 104.2490000 193.4260000
  90.1859214 105.4821885 194.3209740  89.3108707 103.1638749 194.1707234
  94.6908790 102.5715784 191.8897728  94.1242276 102.6910000 193.3150000
  92.7070000 102.6910000 193.3150000  92.8280000 101.7190000 193.3460000
  92.3031057 102.1421082 194.0422381  91.9093487 102.9514789 195.6007628
  91.2204599 105.8473217 194.2777677  89.9283039 105.1935211 195.3450313
  89.5284407 106.2651457 193.9452770  89.7179448 102.1900218 193.8777150
  88.2555256 103.2182270 193.8960774  89.4405857 103.3245068 195.2446063
  94.2999904 103.3844292 191.2669391  95.7841579 102.6283141 191.9117570
  94.4733253 103.6207113 193.7733684  94.4697374 101.8704533 193.9525830
  92.4026078 103.6225210 193.3150000  93.6780000 100.2660000 193.4870000
  90.1970000 105.8860000 202.2840000  90.6350000 105.5640000 200.9660000
  92.1516870 105.6970422 200.8980128  92.7578325 104.7964892 201.8222661
  89.2270000 105.7690000 202.2640000  90.1551500 106.2470745 200.2589185
  90.3264998 104.5358257 200.7529032  92.4677786 106.7099699 201.1690657
  92.5198866 105.4640970 199.8954997  92.3232520 104.9813657 202.6778065
  92.1290000 110.4180000  76.0550000  90.0750000 111.5650000  74.9390000
  90.1859214 112.7981885  75.8339740  89.3108707 110.4798749  75.6837234
  94.6908790 109.8875784  73.4027728  94.1242276 110.0070000  74.8280000
  92.7070000 110.0070000  74.8280000  92.8280000 109.0350000  74.8590000
  92.3031057 109.4581082  75.5552381  91.9093487 110.2674789  77.1137628
  91.2204599 113.1633217  75.7907677  89.9283039 112.5095211  76.8580313
  89.5284407 113.5811457  75.4582770  89.7179448 109.5060218  75.3907150
  88.2555256 110.5342270  75.4090774  89.4405857 110.6405068  76.7576063
  94.2999904 110.7004292  72.7799391  95.7841579 109.9443141  73.4247570
  94.4733253 110.9367113  75.2863684  94.4697374 109.1864533  75.4655830
  92.4026078 110.9385210  74.8280000  93.6780000 107.5820000  75.0000000
  90.1970000 113.2020000  83.7970000  90.6350000 112.8800000  82.4790000
  92.1516870 113.0130422  82.4110128  92.7578325 112.1124892  83.3352661
  89.2270000 113.0850000  83.7770000  90.1551500 113.5630745  81.7719185
  90.3264998 111.8518257  82.2659032  92.4677786 114.0259699  82.6820657
  92.5198866 112.7800970  81.4084997  92.3232520 112.2973657  84.1908065
  92.1290000 110.4180000  89.2200000  90.0750000 111.5650000  88.1040000
  90.1859214 112.7981885  88.9989740  89.3108707 110.4798749  88.8487234
  94.6908790 109.8875784  86.5677728  94.1242276 110.0070000  87.9930000
  92.7070000 110.0070000  87.9930000  92.8280000 109.0350000  88.0240000
  92.3031057 109.4581082  88.7202381  91.9093487 110.2674789  90.2787628
  91.2204599 113.1633217  88.9557677  89.9283039 112.5095211  90.0230313
  89.5284407 113.5811457  88.6232770  89.7179448 109.5060218  88.5557150
  88.2555256 110.5342270  88.5740774  89.4405857 110.6405068  89.9226063
  94.2999904 110.7004292  85.9449391  95.7841579 109.9443141  86.5897570
  94.4733253 110.9367113  88.4513684  94.4697374 109.1864533  88.6305830
  92.4026078 110.9385210  87.9930000  93.6780000 107.5820000  88.1650000
  90.1970000 113.2020000  96.9620000  90.6350000 112.8800000  95.6440000
  92.1516870 113.0130422  95.5760128  92.7578325 112.1124892  96.5002661
  89.2270000 113.0850000  96.9420000  90.1551500 113.5630745  94.9369185
  90.3264998 111.8518257  95.4309032  92.4677786 114.0259699  95.8470657
  92.5198866 112.7800970  94.5734997  92.3232520 112.2973657  97.3558065
  92.1290000 110.4180000 102.3850000  90.0750000 111.5650000 101.2690000
  90.1859214 112.7981885 102.1639740  89.3108707 110.4798749 102.0137234
  94.6908790 109.8875784  99.7327728  94.1242276 110.0070000 101.1580000
  92.7070000 110.0070000 101.1580000  92.8280000 109.0350000 101.1890000
  92.3031057 109.4581082 101.8852381  91.9093487 110.2674789 103.4437628
  91.2204599 113.1633217 102.1207677  89.9283039 112.5095211 103.1880313
  89.5284407 113.5811457 101.7882770  89.7179448 109.5060218 101.7207150
  88.2555256 110.5342270 101.7390774  89.4405857 110.6405068 103.0876063
  94.2999904 110.7004292  99.1099391  95.7841579 109.9443141  99.7547570
  94.4733253 110.9367113 101.6163684  94.4697374 109.1864533 101.7955830
  92.4026078 110.9385210 101.1580000  93.6780000 107.5820000 101.3300000
  90.1970000 113.2020000 110.1270000  90.6350000 112.8800000 108.8090000
  92.1516870 113.0130422 108.7410128  92.7578325 112.1124892 109.6652661
  89.2270000 113.0850000 110.1070000  90.1551500 113.5630745 108.1019185
  90.3264998 111.8518257 108.5959032  92.4677786 114.0259699 109.0120657
  92.5198866 112.7800970 107.7384997  92.3232520 112.2973657 110.5208065
  92.1290000 110.4180000 115.5510000  90.0750000 111.5650000 114.4350000
  90.1859214 112.7981885 115.3299740  89.3108707 110.4798749 115.1797234
  94.6908790 109.8875784 112.8987728  94.1242276 110.0070000 114.3240000
  92.7070000 110.0070000 114.3240000  92.8280000 109.0350000 114.3550000
  92.3031057 109.4581082 115.0512381  91.9093487 110.2674789 116.6097628
  91.2204599 113.1633217 115.2867677  89.9283039 112.5095211 116.3540313
  89.5284407 113.5811457 114.9542770  89.7179448 109.5060218 114.8867150
  88.2555256 110.5342270 114.9050774  89.4405857 110.6405068 116.2536063
  94.2999904 110.7004292 112.2759391  95.7841579 109.9443141 112.9207570
  94.4733253 110.9367113 114.7823684  94.4697374 109.1864533 114.9615830
  92.4026078 110.9385210 114.3240000  93.6780000 107.5820000 114.4960000
  90.1970000 113.2020000 123.2930000  90.6350000 112.8800000 121.9750000
  92.1516870 113.0130422 121.9070128  92.7578325 112.1124892 122.8312661
  89.2270000 113.0850000 123.2730000  90.1551500 113.5630745 121.2679185
  90.3264998 111.8518257 121.7619032  92.4677786 114.0259699 122.1780657
  92.5198866 112.7800970 120.9044997  92.3232520 112.2973657 123.6868065
  92.1290000 110.4180000 128.7160000  90.0750000 111.5650000 127.6000000
  90.1859214 112.7981885 128.4949740  89.3108707 110.4798749 128.3447234
  94.6908790 109.8875784 126.0637728  94.1242276 110.0070000 127.4890000
  92.7070000 110.0070000 127.4890000  92.8280000 109.0350000 127.5200000
  92.3031057 109.4581082 128.2162381  91.9093487 110.2674789 129.7747628
  91.2204599 113.1633217 128.4517677  89.9283039 112.5095211 129.5190313
  89.5284407 113.5811457 128.1192770  89.7179448 109.5060218 128.0517150
  88.2555256 110.5342270 128.0700774  89.4405857 110.6405068 129.4186063
  94.2999904 110.7004292 125.4409391  95.7841579 109.9443141 126.0857570
  94.4733253 110.9367113 127.9473684  94.4697374 109.1864533 128.1265830
  92.4026078 110.9385210 127.4890000  93.6780000 107.5820000 127.6610000
  90.1970000 113.2020000 136.4580000  90.6350000 112.8800000 135.1400000
  92.1516870 113.0130422 135.0720128  92.7578325 112.1124892 135.9962661
  89.2270000 113.0850000 136.4380000  90.1551500 113.5630745 134.4329185
  90.3264998 111.8518257 134.9269032  92.4677786 114.0259699 135.3430657
  92.5198866 112.7800970 134.0694997  92.3232520 112.2973657 136.8518065
  92.1290000 110.4180000 141.8810000  90.0750000 111.5650000 140.7650000
  90.1859214 112.7981885 141.6599740  89.3108707 110.4798749 141.5097234
  94.6908790 109.8875784 139.2287728  94.1242276 110.0070000 140.6540000
  92.7070000 110.0070000 140.6540000  92.8280000 109.0350000 140.6850000
  92.3031057 109.4581082 141.3812381  91.9093487 110.2674789 142.9397628
  91.2204599 113.1633217 141.6167677  89.9283039 112.5095211 142.6840313
  89.5284407 113.5811457 141.2842770  89.7179448 109.5060218 141.2167150
  88.2555256 110.5342270 141.2350774  89.4405857 110.6405068 142.5836063
  94.2999904 110.7004292 138.6059391  95.7841579 109.9443141 139.2507570
  94.4733253 110.9367113 141.1123684  94.4697374 109.1864533 141.2915830
  92.4026078 110.9385210 140.6540000  93.6780000 107.5820000 140.8260000
  90.1970000 113.2020000 149.6230000  90.6350000 112.8800000 148.3050000
  92.1516870 113.0130422 148.2370128  92.7578325 112.1124892 149.1612661
  89.2270000 113.0850000 149.6030000  90.1551500 113.5630745 147.5979185
  90.3264998 111.8518257 148.0919032  92.4677786 114.0259699 148.5080657
  92.5198866 112.7800970 147.2344997  92.3232520 112.2973657 150.0168065
  92.1290000 110.4180000 155.0460000  90.0750000 111.5650000 153.9300000
  90.1859214 112.7981885 154.8249740  89.3108707 110.4798749 154.6747234
  94.6908790 109.8875784 152.3937728  94.1242276 110.0070000 153.8190000
  92.7070000 110.0070000 153.8190000  92.8280000 109.0350000 153.8500000
  92.3031057 109.4581082 154.5462381  91.9093487 110.2674789 156.1047628
  91.2204599 113.1633217 154.7817677  89.9283039 112.5095211 155.8490313
  89.5284407 113.5811457 154.4492770  89.7179448 109.5060218 154.3817150
  88.2555256 110.5342270 154.4000774  89.4405857 110.6405068 155.7486063
  94.2999904 110.7004292 151.7709391  95.7841579 109.9443141 152.4157570
  94.4733253 110.9367113 154.2773684  94.4697374 109.1864533 154.4565830
  92.4026078 110.9385210 153.8190000  93.6780000 107.5820000 153.9910000
  90.1970000 113.2020000 162.7880000  90.6350000 112.8800000 161.4700000
  92.1516870 113.0130422 161.4020128  92.7578325 112.1124892 162.3262661
  89.2270000 113.0850000 162.7680000  90.1551500 113.5630745 160.7629185
  90.3264998 111.8518257 161.2569032  92.4677786 114.0259699 161.6730657
  92.5198866 112.7800970 160.3994997  92.3232520 112.2973657 163.1818065
  92.1290000 110.4180000 168.2110000  90.0750000 111.5650000 167.0950000
  90.1859214 112.7981885 167.9899740  89.3108707 110.4798749 167.8397234
  94.6908790 109.8875784 165.5587728  94.1242276 110.0070000 166.9840000
  92.7070000 110.0070000 166.9840000  92.8280000 109.0350000 167.0150000
  92.3031057 109.4581082 167.7112381  91.9093487 110.2674789 169.2697628
  91.2204599 113.1633217 167.9467677  89.9283039 112.5095211 169.0140313
  89.5284407 113.5811457 167.6142770  89.7179448 109.5060218 167.5467150
  88.2555256 110.5342270 167.5650774  89.4405857 110.6405068 168.9136063
  94.2999904 110.7004292 164.9359391  95.7841579 109.9443141 165.5807570
  94.4733253 110.9367113 167.4423684  94.4697374 109.1864533 167.6215830
  92.4026078 110.9385210 166.9840000  93.6780000 107.5820000 167.1560000
  90.1970000 113.2020000 175.9530000  90.6350000 112.8800000 174.6350000
  92.1516870 113.0130422 174.5670128  92.7578325 112.1124892 175.4912661
  89.2270000 113.0850000 175.9330000  90.1551500 113.5630745 173.9279185
  90.3264998 111.8518257 174.4219032  92.4677786 114.0259699 174.8380657
  92.5198866 112.7800970 173.5644997  92.3232520 112.2973657 176.3468065
  92.1290000 110.4180000 181.3770000  90.0750000 111.5650000 180.2610000
  90.1859214 112.7981885 181.1559740  89.3108707 110.4798749 181.0057234
  94.6908790 109.8875784 178.7247728  94.1242276 110.0070000 180.1500000
  92.7070000 110.0070000 180.1500000  92.8280000 109.0350000 180.1810000
  92.3031057 109.4581082 180.8772381  91.9093487 110.2674789 182.4357628
  91.2204599 113.1633217 181.1127677  89.9283039 112.5095211 182.1800313
  89.5284407 113.5811457 180.7802770  89.7179448 109.5060218 180.7127150
  88.2555256 110.5342270 180.7310774  89.4405857 110.6405068 182.0796063
  94.2999904 110.7004292 178.1019391  95.7841579 109.9443141 178.7467570
  94.4733253 110.9367113 180.6083684  94.4697374 109.1864533 180.7875830
  92.4026078 110.9385210 180.1500000  93.6780000 107.5820000 180.3220000
  90.1970000 113.2020000 189.1190000  90.6350000 112.8800000 187.8010000
  92.1516870 113.0130422 187.7330128  92.7578325 112.1124892 188.6572661
  89.2270000 113.0850000 189.0990000  90.1551500 113.5630745 187.0939185
  90.3264998 111.8518257 187.5879032  92.4677786 114.0259699 188.0040657
  92.5198866 112.7800970 186.7304997  92.3232520 112.2973657 189.5128065
  92.1290000 110.4180000 194.5420000  90.0750000 111.5650000 193.4260000
  90.1859214 112.7981885 194.3209740  89.3108707 110.4798749 194.1707234
  94.6908790 109.8875784 191.8897728  94.1242276 110.0070000 193.3150000
  92.7070000 110.0070000 193.3150000  92.8280000 109.0350000 193.3460000
  92.3031057 109.4581082 194.0422381  91.9093487 110.2674789 195.6007628
  91.2204599 113.1633217 194.2777677  89.9283039 112.5095211 195.3450313
  89.5284407 113.5811457 193.9452770  89.7179448 109.5060218 193.8777150
  88.2555256 110.5342270 193.8960774  89.4405857 110.6405068 195.2446063
  94.2999904 110.7004292 191.2669391  95.7841579 109.9443141 191.9117570
  94.4733253 110.9367113 193.7733684  94.4697374 109.1864533 193.9525830
  92.4026078 110.9385210 193.3150000  93.6780000 107.5820000 193.4870000
  90.1970000 113.2020000 202.2840000  90.6350000 112.8800000 200.9660000
  92.1516870 113.0130422 200.8980128  92.7578325 112.1124892 201.8222661
  89.2270000 113.0850000 202.2640000  90.1551500 113.5630745 200.2589185
  90.3264998 111.8518257 200.7529032  92.4677786 114.0259699 201.1690657
  92.5198866 112.7800970 199.8954997  92.3232520 112.2973657 202.6778065
  92.1290000 117.7340000  76.0550000  90.0750000 118.8810000  74.9390000
  90.1859214 120.1141885  75.8339740  89.3108707 117.7958749  75.6837234
  94.6908790 117.2035784  73.4027728  94.1242276 117.3230000  74.8280000
  92.7070000 117.3230000  74.8280000  92.8280000 116.3510000  74.8590000
  92.3031057 116.7741082  75.5552381  91.9093487 117.5834789  77.1137628
  91.2204599 120.4793217  75.7907677  89.9283039 119.8255211  76.8580313
  89.5284407 120.8971457  75.4582770  89.7179448 116.8220218  75.3907150
  88.2555256 117.8502270  75.4090774  89.4405857 117.9565068  76.7576063
  94.2999904 118.0164292  72.7799391  95.7841579 117.2603141  73.4247570
  94.4733253 118.2527113  75.2863684  94.4697374 116.5024533  75.4655830
  92.4026078 118.2545210  74.8280000  93.6780000 114.8980000  75.0000000
  90.1970000 120.5180000  83.7970000  90.6350000 120.1960000  82.4790000
  92.1516870 120.3290422  82.4110128  92.7578325 119.4284892  83.3352661
  89.2270000 120.4010000  83.7770000  90.1551500 120.8790745  81.7719185
  90.3264998 119.1678257  82.2659032  92.4677786 121.3419699  82.6820657
  92.5198866 120.0960970  81.4084997  92.3232520 119.6133657  84.1908065
  92.1290000 117.7340000  89.2200000  90.0750000 118.8810000  88.1040000
  90.1859214 120.1141885  88.9989740  89.3108707 117.7958749  88.8487234
  94.6908790 117.2035784  86.5677728  94.1242276 117.3230000  87.9930000
  92.7070000 117.3230000  87.9930000  92.8280000 116.3510000  88.0240000
  92.3031057 116.7741082  88.7202381  91.9093487 117.5834789  90.2787628
  91.2204599 120.4793217  88.9557677  89.9283039 119.8255211  90.0230313
  89.5284407 120.8971457  88.6232770  89.7179448 116.8220218  88.5557150
  88.2555256 117.8502270  88.5740774  89.4405857 117.9565068  89.9226063
  94.2999904 118.0164292  85.9449391  95.7841579 117.2603141  86.5897570
  94.4733253 118.2527113  88.4513684  94.4697374 116.5024533  88.6305830
  92.4026078 118.2545210  87.9930000  93.6780000 114.8980000  88.1650000
  90.1970000 120.5180000  96.9620000  90.6350000 120.1960000  95.6440000
  92.1516870 120.3290422  95.5760128  92.7578325 119.4284892  96.5002661
  89.2270000 120.4010000  96.9420000  90.1551500 120.8790745  94.9369185
  90.3264998 119.1678257  95.4309032  92.4677786 121.3419699  95.8470657
  92.5198866 120.0960970  94.5734997  92.3232520 119.6133657  97.3558065
  92.1290000 117.7340000 102.3850000  90.0750000 118.8810000 101.2690000
  90.1859214 120.1141885 102.1639740  89.3108707 117.7958749 102.0137234
  94.6908790 117.2035784  99.7327728  94.1242276 117.3230000 101.1580000
  92.7070000 117.3230000 101.1580000  92.8280000 116.3510000 101.1890000
  92.3031057 116.7741082 101.8852381  91.9093487 117.5834789 103.4437628
  91.2204599 120.4793217 102.1207677  89.9283039 119.8255211 103.1880313
  89.5284407 120.8971457 101.7882770  89.7179448 116.8220218 101.7207150
  88.2555256 117.8502270 101.7390774  89.4405857 117.9565068 103.0876063
  94.2999904 118.0164292  99.1099391  95.7841579 117.2603141  99.7547570
  94.4733253 118.2527113 101.6163684  94.4697374 116.5024533 101.7955830
  92.4026078 118.2545210 101.1580000  93.6780000 114.8980000 101.3300000
  90.1970000 120.5180000 110.1270000  90.6350000 120.1960000 108.8090000
  92.1516870 120.3290422 108.7410128  92.7578325 119.4284892 109.6652661
  89.2270000 120.4010000 110.1070000  90.1551500 120.8790745 108.1019185
  90.3264998 119.1678257 108.5959032  92.4677786 121.3419699 109.0120657
  92.5198866 120.0960970 107.7384997  92.3232520 119.6133657 110.5208065
  92.1290000 117.7340000 115.5510000  90.0750000 118.8810000 114.4350000
  90.1859214 120.1141885 115.3299740  89.3108707 117.7958749 115.1797234
  94.6908790 117.2035784 112.8987728  94.1242276 117.3230000 114.3240000
  92.7070000 117.3230000 114.3240000  92.8280000 116.3510000 114.3550000
  92.3031057 116.7741082 115.0512381  91.9093487 117.5834789 116.6097628
  91.2204599 120.4793217 115.2867677  89.9283039 119.8255211 116.3540313
  89.5284407 120.8971457 114.9542770  89.7179448 116.8220218 114.8867150
  88.2555256 117.8502270 114.9050774  89.4405857 117.9565068 116.2536063
  94.2999904 118.0164292 112.2759391  95.7841579 117.2603141 112.9207570
  94.4733253 118.2527113 114.7823684  94.4697374 116.5024533 114.9615830
  92.4026078 118.2545210 114.3240000  93.6780000 114.8980000 114.4960000
  90.1970000 120.5180000 123.2930000  90.6350000 120.1960000 121.9750000
  92.1516870 120.3290422 121.9070128  92.7578325 119.4284892 122.8312661
  89.2270000 120.4010000 123.2730000  90.1551500 120.8790745 121.2679185
  90.3264998 119.1678257 121.7619032  92.4677786 121.3419699 122.1780657
  92.5198866 120.0960970 120.9044997  92.3232520 119.6133657 123.6868065
  92.1290000 117.7340000 128.7160000  90.0750000 118.8810000 127.6000000
  90.1859214 120.1141885 128.4949740  89.3108707 117.7958749 128.3447234
  94.6908790 117.2035784 126.0637728  94.1242276 117.3230000 127.4890000
  92.7070000 117.3230000 127.4890000  92.8280000 116.3510000 127.5200000
  92.3031057 116.7741082 128.2162381  91.9093487 117.5834789 129.7747628
  91.2204599 120.4793217 128.4517677  89.9283039 119.8255211 129.5190313
  89.5284407 120.8971457 128.1192770  89.7179448 116.8220218 128.0517150
  88.2555256 117.8502270 128.0700774  89.4405857 117.9565068 129.4186063
  94.2999904 118.0164292 125.4409391  95.7841579 117.2603141 126.0857570
  94.4733253 118.2527113 127.9473684  94.4697374 116.5024533 128.1265830
  92.4026078 118.2545210 127.4890000  93.6780000 114.8980000 127.6610000
  90.1970000 120.5180000 136.4580000  90.6350000 120.1960000 135.1400000
  92.1516870 120.3290422 135.0720128  92.7578325 119.4284892 135.9962661
  89.2270000 120.4010000 136.4380000  90.1551500 120.8790745 134.4329185
  90.3264998 119.1678257 134.9269032  92.4677786 121.3419699 135.3430657
  92.5198866 120.0960970 134.0694997  92.3232520 119.6133657 136.8518065
  92.1290000 117.7340000 141.8810000  90.0750000 118.8810000 140.7650000
  90.1859214 120.1141885 141.6599740  89.3108707 117.7958749 141.5097234
  94.6908790 117.2035784 139.2287728  94.1242276 117.3230000 140.6540000
  92.7070000 117.3230000 140.6540000  92.8280000 116.3510000 140.6850000
  92.3031057 116.7741082 141.3812381  91.9093487 117.5834789 142.9397628
  91.2204599 120.4793217 141.6167677  89.9283039 119.8255211 142.6840313
  89.5284407 120.8971457 141.2842770  89.7179448 116.8220218 141.2167150
  88.2555256 117.8502270 141.2350774  89.4405857 117.9565068 142.5836063
  94.2999904 118.0164292 138.6059391  95.7841579 117.2603141 139.2507570
  94.4733253 118.2527113 141.1123684  94.4697374 116.5024533 141.2915830
  92.4026078 118.2545210 140.6540000  93.6780000 114.8980000 140.8260000
  90.1970000 120.5180000 149.6230000  90.6350000 120.1960000 148.3050000
  92.1516870 120.3290422 148.2370128  92.7578325 119.4284892 149.1612661
  89.2270000 120.4010000 149.6030000  90.1551500 120.8790745 147.5979185
  90.3264998 119.1678257 148.0919032  92.4677786 121.3419699 148.5080657
  92.5198866 120.0960970 147.2344997  92.3232520 119.6133657 150.0168065
  92.1290000 117.7340000 155.0460000  90.0750000 118.8810000 153.9300000
  90.1859214 120.1141885 154.8249740  89.3108707 117.7958749 154.6747234
  94.6908790 117.2035784 152.3937728  94.1242276 117.3230000 153.8190000
  92.7070000 117.3230000 153.8190000  92.8280000 116.3510000 153.8500000
  92.3031057 116.7741082 154.5462381  91.9093487 117.5834789 156.1047628
  91.2204599 120.4793217 154.7817677  89.9283039 119.8255211 155.8490313
  89.5284407 120.8971457 154.4492770  89.7179448 116.8220218 154.3817150
  88.2555256 117.8502270 154.4000774  89.4405857 117.9565068 155.7486063
  94.2999904 118.0164292 151.7709391  95.7841579 117.2603141 152.4157570
  94.4733253 118.2527113 154.2773684  94.4697374 116.5024533 154.4565830
  92.4026078 118.2545210 153.8190000  93.6780000 114.8980000 153.9910000
  90.1970000 120.5180000 162.7880000  90.6350000 120.1960000 161.4700000
  92.1516870 120.3290422 161.4020128  92.7578325 119.4284892 162.3262661
  89.2270000 120.4010000 162.7680000  90.1551500 120.8790745 160.7629185
  90.3264998 119.1678257 161.2569032  92.4677786 121.3419699 161.6730657
  92.5198866 120.0960970 160.3994997  92.3232520 119.6133657 163.1818065
  92.1290000 117.7340000 168.2110000  90.0750000 118.8810000 167.0950000
  90.1859214 120.1141885 167.9899740  89.3108707 117.7958749 167.8397234
  94.6908790 117.2035784 165.5587728  94.1242276 117.3230000 166.9840000
  92.7070000 117.3230000 166.9840000  92.8280000 116.3510000 167.0150000
  92.3031057 116.7741082 167.7112381  91.9093487 117.5834789 169.2697628
  91.2204599 120.4793217 167.9467677  89.9283039 119.8255211 169.0140313
  89.5284407 120.8971457 167.6142770  89.7179448 116.8220218 167.5467150
  88.2555256 117.8502270 167.5650774  89.4405857 117.9565068 168.9136063
  94.2999904 118.0164292 164.9359391  95.7841579 117.2603141 165.5807570
  94.4733253 118.2527113 167.4423684  94.4697374 116.5024533 167.6215830
  92.4026078 118.2545210 166.9840000  93.6780000 114.8980000 167.1560000
  90.1970000 120.5180000 175.9530000  90.6350000 120.1960000 174.6350000
  92.1516870 120.3290422 174.5670128  92.7578325 119.4284892 175.4912661
  89.2270000 120.4010000 175.9330000  90.1551500 120.8790745 173.9279185
  90.3264998 119.1678257 174.4219032  92.4677786 121.3419699 174.8380657
  92.5198866 120.0960970 173.5644997  92.3232520 119.6133657 176.3468065
  92.1290000 117.7340000 181.3770000  90.0750000 118.8810000 180.2610000
  90.1859214 120.1141885 181.1559740  89.3108707 117.7958749 181.0057234
  94.6908790 117.2035784 178.7247728  94.1242276 117.3230000 180.1500000
  92.7070000 117.3230000 180.1500000  92.8280000 116.3510000 180.1810000
  92.3031057 116.7741082 180.8772381  91.9093487 117.5834789 182.4357628
  91.2204599 120.4793217 181.1127677  89.9283039 119.8255211 182.1800313
  89.5284407 120.8971457 180.7802770  89.7179448 116.8220218 180.7127150
  88.2555256 117.8502270 180.7310774  89.4405857 117.9565068 182.0796063
  94.2999904 118.0164292 178.1019391  95.7841579 117.2603141 178.7467570
  94.4733253 118.2527113 180.6083684  94.4697374 116.5024533 180.7875830
  92.4026078 118.2545210 180.1500000  93.6780000 114.8980000 180.3220000
  90.1970000 120.5180000 189.1190000  90.6350000 120.1960000 187.8010000
  92.1516870 120.3290422 187.7330128  92.7578325 119.4284892 188.6572661
  89.2270000 120.4010000 189.0990000  90.1551500 120.8790745 187.0939185
  90.3264998 119.1678257 187.5879032  92.4677786 121.3419699 188.0040657
  92.5198866 120.0960970 186.7304997  92.3232520 119.6133657 189.5128065
  92.1290000 117.7340000 194.5420000  90.0750000 118.8810000 193.4260000
  90.1859214 120.1141885 194.3209740  89.3108707 117.7958749 194.1707234
  94.6908790 117.2035784 191.8897728  94.1242276 117.3230000 193.3150000
  92.7070000 117.3230000 193.3150000  92.8280000 116.3510000 193.3460000
  92.3031057 116.7741082 194.0422381  91.9093487 117.5834789 195.6007628
  91.2204599 120.4793217 194.2777677  89.9283039 119.8255211 195.3450313
  89.5284407 120.8971457 193.9452770  89.7179448 116.8220218 193.8777150
  88.2555256 117.8502270 193.8960774  89.4405857 117.9565068 195.2446063
  94.2999904 118.0164292 191.2669391  95.7841579 117.2603141 191.9117570
  94.4733253 118.2527113 193.7733684  94.4697374 116.5024533 193.9525830
  92.4026078 118.2545210 193.3150000  93.6780000 114.8980000 193.4870000
  90.1970000 120.5180000 202.2840000  90.6350000 120.1960000 200.9660000
  92.1516870 120.3290422 200.8980128  92.7578325 119.4284892 201.8222661
  89.2270000 120.4010000 202.2640000  90.1551500 120.8790745 200.2589185
  90.3264998 119.1678257 200.7529032  92.4677786 121.3419699 201.1690657
  92.5198866 120.0960970 199.8954997  92.3232520 119.6133657 202.6778065
  92.1290000 125.0510000  76.0550000  90.0750000 126.1980000  74.9390000
  90.1859214 127.4311885  75.8339740  89.3108707 125.1128749  75.6837234
  94.6908790 124.5205784  73.4027728  94.1242276 124.6400000  74.8280000
  92.7070000 124.6400000  74.8280000  92.8280000 123.6680000  74.8590000
  92.3031057 124.0911082  75.5552381  91.9093487 124.9004789  77.1137628
  91.2204599 127.7963217  75.7907677  89.9283039 127.1425211  76.8580313
  89.5284407 128.2141457  75.4582770  89.7179448 124.1390218  75.3907150
  88.2555256 125.1672270  75.4090774  89.4405857 125.2735068  76.7576063
  94.2999904 125.3334292  72.7799391  95.7841579 124.5773141  73.4247570
  94.4733253 125.5697113  75.2863684  94.4697374 123.8194533  75.4655830
  92.4026078 125.5715210  74.8280000  93.6780000 122.2150000  75.0000000
  90.1970000 127.8350000  83.7970000  90.6350000 127.5130000  82.4790000
  92.1516870 127.6460422  82.4110128  92.7578325 126.7454892  83.3352661
  89.2270000 127.7180000  83.7770000  90.1551500 128.1960745  81.7719185
  90.3264998 126.4848257  82.2659032  92.4677786 128.6589699  82.6820657
  92.5198866 127.4130970  81.4084997  92.3232520 126.9303657  84.1908065
  92.1290000 125.0510000  89.2200000  90.0750000 126.1980000  88.1040000
  90.1859214 127.4311885  88.9989740  89.3108707 125.1128749  88.8487234
  94.6908790 124.5205784  86.5677728  94.1242276 124.6400000  87.9930000
  92.7070000 124.6400000  87.9930000  92.8280000 123.6680000  88.0240000
  92.3031057 124.0911082  88.7202381  91.9093487 124.9004789  90.2787628
  91.2204599 127.7963217  88.9557677  89.9283039 127.1425211  90.0230313
  89.5284407 128.2141457  88.6232770  89.7179448 124.1390218  88.5557150
  88.2555256 125.1672270  88.5740774  89.4405857 125.2735068  89.9226063
  94.2999904 125.3334292  85.9449391  95.7841579 124.5773141  86.5897570
  94.4733253 125.5697113  88.4513684  94.4697374 123.8194533  88.6305830
  92.4026078 125.5715210  87.9930000  93.6780000 122.2150000  88.1650000
  90.1970000 127.8350000  96.9620000  90.6350000 127.5130000  95.6440000
  92.1516870 127.6460422  95.5760128  92.7578325 126.7454892  96.5002661
  89.2270000 127.7180000  96.9420000  90.1551500 128.1960745  94.9369185
  90.3264998 126.4848257  95.4309032  92.4677786 128.6589699  95.8470657
  92.5198866 127.4130970  94.5734997  92.3232520 126.9303657  97.3558065
  92.1290000 125.0510000 102.3850000  90.0750000 126.1980000 101.2690000
  90.1859214 127.4311885 102.1639740  89.3108707 125.1128749 102.0137234
  94.6908790 124.5205784  99.7327728  94.1242276 124.6400000 101.1580000
  92.7070000 124.6400000 101.1580000  92.8280000 123.6680000 101.1890000
  92.3031057 124.0911082 101.8852381  91.9093487 124.9004789 103.4437628
  91.2204599 127.7963217 102.1207677  89.9283039 127.1425211 103.1880313
  89.5284407 128.2141457 101.7882770  89.7179448 124.1390218 101.7207150
  88.2555256 125.1672270 101.7390774  89.4405857 125.2735068 103.0876063
  94.2999904 125.3334292  99.1099391  95.7841579 124.5773141  99.7547570
  94.4733253 125.5697113 101.6163684  94.4697374 123.8194533 101.7955830
  92.4026078 125.5715210 101.1580000  93.6780000 122.2150000 101.3300000
  90.1970000 127.8350000 110.1270000  90.6350000 127.5130000 108.8090000
  92.1516870 127.6460422 108.7410128  92.7578325 126.7454892 109.6652661
  89.2270000 127.7180000 110.1070000  90.1551500 128.1960745 108.1019185
  90.3264998 126.4848257 108.5959032  92.4677786 128.6589699 109.0120657
  92.5198866 127.4130970 107.7384997  92.3232520 126.9303657 110.5208065
  92.1290000 125.0510000 115.5510000  90.0750000 126.1980000 114.4350000
  90.1859214 127.4311885 115.3299740  89.3108707 125.1128749 115.1797234
  94.6908790 124.5205784 112.8987728  94.1242276 124.6400000 114.3240000
  92.7070000 124.6400000 114.3240000  92.8280000 123.6680000 114.3550000
  92.3031057 124.0911082 115.0512381  91.9093487 124.9004789 116.6097628
  91.2204599 127.7963217 115.2867677  89.9283039 127.1425211 116.3540313
  89.5284407 128.2141457 114.9542770  89.7179448 124.1390218 114.8867150
  88.2555256 125.1672270 114.9050774  89.4405857 125.2735068 116.2536063
  94.2999904 125.3334292 112.2759391  95.7841579 124.5773141 112.9207570
  94.4733253 125.5697113 114.7823684  94.4697374 123.8194533 114.9615830
  92.4026078 125.5715210 114.3240000  93.6780000 122.2150000 114.4960000
  90.1970000 127.8350000 123.2930000  90.6350000 127.5130000 121.9750000
  92.1516870 127.6460422 121.9070128  92.7578325 126.7454892 122.8312661
  89.2270000 127.7180000 123.2730000  90.1551500 128.1960745 121.2679185
  90.3264998 126.4848257 121.7619032  92.4677786 128.6589699 122.1780657
  92.5198866 127.4130970 120.9044997  92.3232520 126.9303657 123.6868065
  92.1290000 125.0510000 128.7160000  90.0750000 126.1980000 127.6000000
  90.1859214 127.4311885 128.4949740  89.3108707 125.1128749 128.3447234
  94.6908790 124.5205784 126.0637728  94.1242276 124.6400000 127.4890000
  92.7070000 124.6400000 127.4890000  92.8280000 123.6680000 127.5200000
  92.3031057 124.0911082 128.2162381  91.9093487 124.9004789 129.7747628
  91.2204599 127.7963217 128.4517677  89.9283039 127.1425211 129.5190313
  89.5284407 128.2141457 128.1192770  89.7179448 124.1390218 128.0517150
  88.2555256 125.1672270 128.0700774  89.4405857 125.2735068 129.4186063
  94.2999904 125.3334292 125.4409391  95.7841579 124.5773141 126.0857570
  94.4733253 125.5697113 127.9473684  94.4697374 123.8194533 128.1265830
  92.4026078 125.5715210 127.4890000  93.6780000 122.2150000 127.6610000
  90.1970000 127.8350000 136.4580000  90.6350000 127.5130000 135.1400000
  92.1516870 127.6460422 135.0720128  92.7578325 126.7454892 135.9962661
  89.2270000 127.7180000 136.4380000  90.1551500 128.1960745 134.4329185
  90.3264998 126.4848257 134.9269032  92.4677786 128.6589699 135.3430657
  92.5198866 127.4130970 134.0694997  92.3232520 126.9303657 136.8518065
  92.1290000 125.0510000 141.8810000  90.0750000 126.1980000 140.7650000
  90.1859214 127.4311885 141.6599740  89.3108707 125.1128749 141.5097234
  94.6908790 124.5205784 139.2287728  94.1242276 124.6400000 140.6540000
  92.7070000 124.6400000 140.6540000  92.8280000 123.6680000 140.6850000
  92.3031057 124.0911082 141.3812381  91.9093487 124.9004789 142.9397628
  91.2204599 127.7963217 141.6167677  89.9283039 127.1425211 142.6840313
  89.5284407 128.2141457 141.2842770  89.7179448 124.1390218 141.2167150
  88.2555256 125.1672270 141.2350774  89.4405857 125.2735068 142.5836063
  94.2999904 125.3334292 138.6059391  95.7841579 124.5773141 139.2507570
  94.4733253 125.5697113 141.1123684  94.4697374 123.8194533 141.2915830
  92.4026078 125.5715210 140.6540000  93.6780000 122.2150000 140.8260000
  90.1970000 127.8350000 149.6230000  90.6350000 127.5130000 148.3050000
  92.1516870 127.6460422 148.2370128  92.7578325 126.7454892 149.1612661
  89.2270000 127.7180000 149.6030000  90.1551500 128.1960745 147.5979185
  90.3264998 126.4848257 148.0919032  92.4677786 128.6589699 148.5080657
  92.5198866 127.4130970 147.2344997  92.3232520 126.9303657 150.0168065
  92.1290000 125.0510000 155.0460000  90.0750000 126.1980000 153.9300000
  90.1859214 127.4311885 154.8249740  89.3108707 125.1128749 154.6747234
  94.6908790 124.5205784 152.3937728  94.1242276 124.6400000 153.8190000
  92.7070000 124.6400000 153.8190000  92.8280000 123.6680000 153.8500000
  92.3031057 124.0911082 154.5462381  91.9093487 124.9004789 156.1047628
  91.2204599 127.7963217 154.7817677  89.9283039 127.1425211 155.8490313
  89.5284407 128.2141457 154.4492770  89.7179448 124.1390218 154.3817150
  88.2555256 125.1672270 154.4000774  89.4405857 125.2735068 155.7486063
  94.2999904 125.3334292 151.7709391  95.7841579 124.5773141 152.4157570
  94.4733253 125.5697113 154.2773684  94.4697374 123.8194533 154.4565830
  92.4026078 125.5715210 153.8190000  93.6780000 122.2150000 153.9910000
  90.1970000 127.8350000 162.7880000  90.6350000 127.5130000 161.4700000
  92.1516870 127.6460422 161.4020128  92.7578325 126.7454892 162.3262661
  89.2270000 127.7180000 162.7680000  90.1551500 128.1960745 160.7629185
  90.3264998 126.4848257 161.2569032  92.4677786 128.6589699 161.6730657
  92.5198866 127.4130970 160.3994997  92.3232520 126.9303657 163.1818065
  92.1290000 125.0510000 168.2110000  90.0750000 126.1980000 167.0950000
  90.1859214 127.4311885 167.9899740  89.3108707 125.1128749 167.8397234
  94.6908790 124.5205784 165.5587728  94.1242276 124.6400000 166.9840000
  92.7070000 124.6400000 166.9840000  92.8280000 123.6680000 167.0150000
  92.3031057 124.0911082 167.7112381  91.9093487 124.9004789 169.2697628
  91.2204599 127.7963217 167.9467677  89.9283039 127.1425211 169.0140313
  89.5284407 128.2141457 167.6142770  89.7179448 124.1390218 167.5467150
  88.2555256 125.1672270 167.5650774  89.4405857 125.2735068 168.9136063
  94.2999904 125.3334292 164.9359391  95.7841579 124.5773141 165.5807570
  94.4733253 125.5697113 167.4423684  94.4697374 123.8194533 167.6215830
  92.4026078 125.5715210 166.9840000  93.6780000 122.2150000 167.1560000
  90.1970000 127.8350000 175.9530000  90.6350000 127.5130000 174.6350000
  92.1516870 127.6460422 174.5670128  92.7578325 126.7454892 175.4912661
  89.2270000 127.7180000 175.9330000  90.1551500 128.1960745 173.9279185
  90.3264998 126.4848257 174.4219032  92.4677786 128.6589699 174.8380657
  92.5198866 127.4130970 173.5644997  92.3232520 126.9303657 176.3468065
  92.1290000 125.0510000 181.3770000  90.0750000 126.1980000 180.2610000
  90.1859214 127.4311885 181.1559740  89.3108707 125.1128749 181.0057234
  94.6908790 124.5205784 178.7247728  94.1242276 124.6400000 180.1500000
  92.7070000 124.6400000 180.1500000  92.8280000 123.6680000 180.1810000
  92.3031057 124.0911082 180.8772381  91.9093487 124.9004789 182.4357628
  91.2204599 127.7963217 181.1127677  89.9283039 127.1425211 182.1800313
  89.5284407 128.2141457 180.7802770  89.7179448 124.1390218 180.7127150
  88.2555256 125.1672270 180.7310774  89.4405857 125.2735068 182.0796063
  94.2999904 125.3334292 178.1019391  95.7841579 124.5773141 178.7467570
  94.4733253 125.5697113 180.6083684  94.4697374 123.8194533 180.7875830
  92.4026078 125.5715210 180.1500000  93.6780000 122.2150000 180.3220000
  90.1970000 127.8350000 189.1190000  90.6350000 127.5130000 187.8010000
  92.1516870 127.6460422 187.7330128  92.7578325 126.7454892 188.6572661
  89.2270000 127.7180000 189.0990000  90.1551500 128.1960745 187.0939185
  90.3264998 126.4848257 187.5879032  92.4677786 128.6589699 188.0040657
  92.5198866 127.4130970 186.7304997  92.3232520 126.9303657 189.5128065
  92.1290000 125.0510000 194.5420000  90.0750000 126.1980000 193.4260000
  90.1859214 127.4311885 194.3209740  89.3108707 125.1128749 194.1707234
  94.6908790 124.5205784 191.8897728  94.1242276 124.6400000 193.3150000
  92.7070000 124.6400000 193.3150000  92.8280000 123.6680000 193.3460000
  92.3031057 124.0911082 194.0422381  91.9093487 124.9004789 195.6007628
  91.2204599 127.7963217 194.2777677  89.9283039 127.1425211 195.3450313
  89.5284407 128.2141457 193.9452770  89.7179448 124.1390218 193.8777150
  88.2555256 125.1672270 193.8960774  89.4405857 125.2735068 195.2446063
  94.2999904 125.3334292 191.2669391  95.7841579 124.5773141 191.9117570
  94.4733253 125.5697113 193.7733684  94.4697374 123.8194533 193.9525830
  92.4026078 125.5715210 193.3150000  93.6780000 122.2150000 193.4870000
  90.1970000 127.8350000 202.2840000  90.6350000 127.5130000 200.9660000
  92.1516870 127.6460422 200.8980128  92.7578325 126.7454892 201.8222661
  89.2270000 127.7180000 202.2640000  90.1551500 128.1960745 200.2589185
  90.3264998 126.4848257 200.7529032  92.4677786 128.6589699 201.1690657
  92.5198866 127.4130970 199.8954997  92.3232520 126.9303657 202.6778065
  92.1290000 132.3670000  76.0550000  90.0750000 133.5140000  74.9390000
  90.1859214 134.7471885  75.8339740  89.3108707 132.4288749  75.6837234
  94.6908790 131.8365784  73.4027728  94.1242276 131.9560000  74.8280000
  92.7070000 131.9560000  74.8280000  92.8280000 130.9840000  74.8590000
  92.3031057 131.4071082  75.5552381  91.9093487 132.2164789  77.1137628
  91.2204599 135.1123217  75.7907677  89.9283039 134.4585211  76.8580313
  89.5284407 135.5301457  75.4582770  89.7179448 131.4550218  75.3907150
  88.2555256 132.4832270  75.4090774  89.4405857 132.5895068  76.7576063
  94.2999904 132.6494292  72.7799391  95.7841579 131.8933141  73.4247570
  94.4733253 132.8857113  75.2863684  94.4697374 131.1354533  75.4655830
  92.4026078 132.8875210  74.8280000  93.6780000 129.5310000  75.0000000
  90.1970000 135.1510000  83.7970000  90.6350000 134.8290000  82.4790000
  92.1516870 134.9620422  82.4110128  92.7578325 134.0614892  83.3352661
  89.2270000 135.0340000  83.7770000  90.1551500 135.5120745  81.7719185
  90.3264998 133.8008257  82.2659032  92.4677786 135.9749699  82.6820657
  92.5198866 134.7290970  81.4084997  92.3232520 134.2463657  84.1908065
  92.1290000 132.3670000  89.2200000  90.0750000 133.5140000  88.1040000
  90.1859214 134.7471885  88.9989740  89.3108707 132.4288749  88.8487234
  94.6908790 131.8365784  86.5677728  94.1242276 131.9560000  87.9930000
  92.7070000 131.9560000  87.9930000  92.8280000 130.9840000  88.0240000
  92.3031057 131.4071082  88.7202381  91.9093487 132.2164789  90.2787628
  91.2204599 135.1123217  88.9557677  89.9283039 134.4585211  90.0230313
  89.5284407 135.5301457  88.6232770  89.7179448 131.4550218  88.5557150
  88.2555256 132.4832270  88.5740774  89.4405857 132.5895068  89.9226063
  94.2999904 132.6494292  85.9449391  95.7841579 131.8933141  86.5897570
  94.4733253 132.8857113  88.4513684  94.4697374 131.1354533  88.6305830
  92.4026078 132.8875210  87.9930000  93.6780000 129.5310000  88.1650000
  90.1970000 135.1510000  96.9620000  90.6350000 134.8290000  95.6440000
  92.1516870 134.9620422  95.5760128  92.7578325 134.0614892  96.5002661
  89.2270000 135.0340000  96.9420000  90.1551500 135.5120745  94.9369185
  90.3264998 133.8008257  95.4309032  92.4677786 135.9749699  95.8470657
  92.5198866 134.7290970  94.5734997  92.3232520 134.2463657  97.3558065
  92.1290000 132.3670000 102.3850000  90.0750000 133.5140000 101.2690000
  90.1859214 134.7471885 102.1639740  89.3108707 132.4288749 102.0137234
  94.6908790 131.8365784  99.7327728  94.1242276 131.9560000 101.1580000
  92.7070000 131.9560000 101.1580000  92.8280000 130.9840000 101.1890000
  92.3031057 131.4071082 101.8852381  91.9093487 132.2164789 103.4437628
  91.2204599 135.1123217 102.1207677  89.9283039 134.4585211 103.1880313
  89.5284407 135.5301457 101.7882770  89.7179448 131.4550218 101.7207150
  88.2555256 132.4832270 101.7390774  89.4405857 132.5895068 103.0876063
  94.2999904 132.6494292  99.1099391  95.7841579 131.8933141  99.7547570
  94.4733253 132.8857113 101.6163684  94.4697374 131.1354533 101.7955830
  92.4026078 132.8875210 101.1580000  93.6780000 129.5310000 101.3300000
  90.1970000 135.1510000 110.1270000  90.6350000 134.8290000 108.8090000
  92.1516870 134.9620422 108.7410128  92.7578325 134.0614892 109.6652661
  89.2270000 135.0340000 110.1070000  90.1551500 135.5120745 108.1019185
  90.3264998 133.8008257 108.5959032  92.4677786 135.9749699 109.0120657
  92.5198866 134.7290970 107.7384997  92.3232520 134.2463657 110.5208065
  92.1290000 132.3670000 115.5510000  90.0750000 133.5140000 114.4350000
  90.1859214 134.7471885 115.3299740  89.3108707 132.4288749 115.1797234
  94.6908790 131.8365784 112.8987728  94.1242276 131.9560000 114.3240000
  92.7070000 131.9560000 114.3240000  92.8280000 130.9840000 114.3550000
  92.3031057 131.4071082 115.0512381  91.9093487 132.2164789 116.6097628
  91.2204599 135.1123217 115.2867677  89.9283039 134.4585211 116.3540313
  89.5284407 135.5301457 114.9542770  89.7179448 131.4550218 114.8867150
  88.2555256 132.4832270 114.9050774  89.4405857 132.5895068 116.2536063
  94.2999904 132.6494292 112.2759391  95.7841579 131.8933141 112.9207570
  94.4733253 132.8857113 114.7823684  94.4697374 131.1354533 114.9615830
  92.4026078 132.8875210 114.3240000  93.6780000 129.5310000 114.4960000
  90.1970000 135.1510000 123.2930000  90.6350000 134.8290000 121.9750000
  92.1516870 134.9620422 121.9070128  92.7578325 134.0614892 122.8312661
  89.2270000 135.0340000 123.2730000  90.1551500 135.5120745 121.2679185
  90.3264998 133.8008257 121.7619032  92.4677786 135.9749699 122.1780657
  92.5198866 134.7290970 120.9044997  92.3232520 134.2463657 123.6868065
  92.1290000 132.3670000 128.7160000  90.0750000 133.5140000 127.6000000
  90.1859214 134.7471885 128.4949740  89.3108707 132.4288749 128.3447234
  94.6908790 131.8365784 126.0637728  94.1242276 131.9560000 127.4890000
  92.7070000 131.9560000 127.4890000  92.8280000 130.9840000 127.5200000
  92.3031057 131.4071082 128.2162381  91.9093487 132.2164789 129.7747628
  91.2204599 135.1123217 128.4517677  89.9283039 134.4585211 129.5190313
  89.5284407 135.5301457 128.1192770  89.7179448 131.4550218 128.0517150
  88.2555256 132.4832270 128.0700774  89.4405857 132.5895068 129.4186063
  94.2999904 132.6494292 125.4409391  95.7841579 131.8933141 126.0857570
  94.4733253 132.8857113 127.9473684  94.4697374 131.1354533 128.1265830
  92.4026078 132.8875210 127.4890000  93.6780000 129.5310000 127.6610000
  90.1970000 135.1510000 136.4580000  90.6350000 134.8290000 135.1400000
  92.1516870 134.9620422 135.0720128  92.7578325 134.0614892 135.9962661
  89.2270000 135.0340000 136.4380000  90.1551500 135.5120745 134.4329185
  90.3264998 133.8008257 134.9269032  92.4677786 135.9749699 135.3430657
  92.5198866 134.7290970 134.0694997  92.3232520 134.2463657 136.8518065
  92.1290000 132.3670000 141.8810000  90.0750000 133.5140000 140.7650000
  90.1859214 134.7471885 141.6599740  89.3108707 132.4288749 141.5097234
  94.6908790 131.8365784 139.2287728  94.1242276 131.9560000 140.6540000
  92.7070000 131.9560000 140.6540000  92.8280000 130.9840000 140.6850000
  92.3031057 131.4071082 141.3812381  91.9093487 132.2164789 142.9397628
  91.2204599 135.1123217 141.6167677  89.9283039 134.4585211 142.6840313
  89.5284407 135.5301457 141.2842770  89.7179448 131.4550218 141.2167150
  88.2555256 132.4832270 141.2350774  89.4405857 132.5895068 142.5836063
  94.2999904 132.6494292 138.6059391  95.7841579 131.8933141 139.2507570
  94.4733253 132.8857113 141.1123684  94.4697374 131.1354533 141.2915830
  92.4026078 132.8875210 140.6540000  93.6780000 129.5310000 140.8260000
  90.1970000 135.1510000 149.6230000  90.6350000 134.8290000 148.3050000
  92.1516870 134.9620422 148.2370128  92.7578325 134.0614892 149.1612661
  89.2270000 135.0340000 149.6030000  90.1551500 135.5120745 147.5979185
  90.3264998 133.8008257 148.0919032  92.4677786 135.9749699 148.5080657
  92.5198866 134.7290970 147.2344997  92.3232520 134.2463657 150.0168065
  92.1290000 132.3670000 155.0460000  90.0750000 133.5140000 153.9300000
  90.1859214 134.7471885 154.8249740  89.3108707 132.4288749 154.6747234
  94.6908790 131.8365784 152.3937728  94.1242276 131.9560000 153.8190000
  92.7070000 131.9560000 153.8190000  92.8280000 130.9840000 153.8500000
  92.3031057 131.4071082 154.5462381  91.9093487 132.2164789 156.1047628
  91.2204599 135.1123217 154.7817677  89.9283039 134.4585211 155.8490313
  89.5284407 135.5301457 154.4492770  89.7179448 131.4550218 154.3817150
  88.2555256 132.4832270 154.4000774  89.4405857 132.5895068 155.7486063
  94.2999904 132.6494292 151.7709391  95.7841579 131.8933141 152.4157570
  94.4733253 132.8857113 154.2773684  94.4697374 131.1354533 154.4565830
  92.4026078 132.8875210 153.8190000  93.6780000 129.5310000 153.9910000
  90.1970000 135.1510000 162.7880000  90.6350000 134.8290000 161.4700000
  92.1516870 134.9620422 161.4020128  92.7578325 134.0614892 162.3262661
  89.2270000 135.0340000 162.7680000  90.1551500 135.5120745 160.7629185
  90.3264998 133.8008257 161.2569032  92.4677786 135.9749699 161.6730657
  92.5198866 134.7290970 160.3994997  92.3232520 134.2463657 163.1818065
  92.1290000 132.3670000 168.2110000  90.0750000 133.5140000 167.0950000
  90.1859214 134.7471885 167.9899740  89.3108707 132.4288749 167.8397234
  94.6908790 131.8365784 165.5587728  94.1242276 131.9560000 166.9840000
  92.7070000 131.9560000 166.9840000  92.8280000 130.9840000 167.0150000
  92.3031057 131.4071082 167.7112381  91.9093487 132.2164789 169.2697628
  91.2204599 135.1123217 167.9467677  89.9283039 134.4585211 169.0140313
  89.5284407 135.5301457 167.6142770  89.7179448 131.4550218 167.5467150
  88.2555256 132.4832270 167.5650774  89.4405857 132.5895068 168.9136063
  94.2999904 132.6494292 164.9359391  95.7841579 131.8933141 165.5807570
  94.4733253 132.8857113 167.4423684  94.4697374 131.1354533 167.6215830
  92.4026078 132.8875210 166.9840000  93.6780000 129.5310000 167.1560000
  90.1970000 135.1510000 175.9530000  90.6350000 134.8290000 174.6350000
  92.1516870 134.9620422 174.5670128  92.7578325 134.0614892 175.4912661
  89.2270000 135.0340000 175.9330000  90.1551500 135.5120745 173.9279185
  90.3264998 133.8008257 174.4219032  92.4677786 135.9749699 174.8380657
  92.5198866 134.7290970 173.5644997  92.3232520 134.2463657 176.3468065
  92.1290000 132.3670000 181.3770000  90.0750000 133.5140000 180.2610000
  90.1859214 134.7471885 181.1559740  89.3108707 132.4288749 181.0057234
  94.6908790 131.8365784 178.7247728  94.1242276 131.9560000 180.1500000
  92.7070000 131.9560000 180.1500000  92.8280000 130.9840000 180.1810000
  92.3031057 131.4071082 180.8772381  91.9093487 132.2164789 182.4357628
  91.2204599 135.1123217 181.1127677  89.9283039 134.4585211 182.1800313
  89.5284407 135.5301457 180.7802770  89.7179448 131.4550218 180.7127150
  88.2555256 132.4832270 180.7310774  89.4405857 132.5895068 182.0796063
  94.2999904 132.6494292 178.1019391  95.7841579 131.8933141 178.7467570
  94.4733253 132.8857113 180.6083684  94.4697374 131.1354533 180.7875830
  92.4026078 132.8875210 180.1500000  93.6780000 129.5310000 180.3220000
  90.1970000 135.1510000 189.1190000  90.6350000 134.8290000 187.8010000
  92.1516870 134.9620422 187.7330128  92.7578325 134.0614892 188.6572661
  89.2270000 135.0340000 189.0990000  90.1551500 135.5120745 187.0939185
  90.3264998 133.8008257 187.5879032  92.4677786 135.9749699 188.0040657
  92.5198866 134.7290970 186.7304997  92.3232520 134.2463657 189.5128065
  92.1290000 132.3670000 194.5420000  90.0750000 133.5140000 193.4260000
  90.1859214 134.7471885 194.3209740  89.3108707 132.4288749 194.1707234
  94.6908790 131.8365784 191.8897728  94.1242276 131.9560000 193.3150000
  92.7070000 131.9560000 193.3150000  92.8280000 130.9840000 193.3460000
  92.3031057 131.4071082 194.0422381  91.9093487 132.2164789 195.6007628
  91.2204599 135.1123217 194.2777677  89.9283039 134.4585211 195.3450313
  89.5284407 135.5301457 193.9452770  89.7179448 131.4550218 193.8777150
  88.2555256 132.4832270 193.8960774  89.4405857 132.5895068 195.2446063
  94.2999904 132.6494292 191.2669391  95.7841579 131.8933141 191.9117570
  94.4733253 132.8857113 193.7733684  94.4697374 131.1354533 193.9525830
  92.4026078 132.8875210 193.3150000  93.6780000 129.5310000 193.4870000
  90.1970000 135.1510000 202.2840000  90.6350000 134.8290000 200.9660000
  92.1516870 134.9620422 200.8980128  92.7578325 134.0614892 201.8222661
  89.2270000 135.0340000 202.2640000  90.1551500 135.5120745 200.2589185
  90.3264998 133.8008257 200.7529032  92.4677786 135.9749699 201.1690657
  92.5198866 134.7290970 199.8954997  92.3232520 134.2463657 202.6778065
  92.1290000 139.6840000  76.0550000  90.0750000 140.8310000  74.9390000
  90.1859214 142.0641885  75.8339740  89.3108707 139.7458749  75.6837234
  94.6908790 139.1535784  73.4027728  94.1242276 139.2730000  74.8280000
  92.7070000 139.2730000  74.8280000  92.8280000 138.3010000  74.8590000
  92.3031057 138.7241082  75.5552381  91.9093487 139.5334789  77.1137628
  91.2204599 142.4293217  75.7907677  89.9283039 141.7755211  76.8580313
  89.5284407 142.8471457  75.4582770  89.7179448 138.7720218  75.3907150
  88.2555256 139.8002270  75.4090774  89.4405857 139.9065068  76.7576063
  94.2999904 139.9664292  72.7799391  95.7841579 139.2103141  73.4247570
  94.4733253 140.2027113  75.2863684  94.4697374 138.4524533  75.4655830
  92.4026078 140.2045210  74.8280000  93.6780000 136.8480000  75.0000000
  90.1970000 142.4680000  83.7970000  90.6350000 142.1460000  82.4790000
  92.1516870 142.2790422  82.4110128  92.7578325 141.3784892  83.3352661
  89.2270000 142.3510000  83.7770000  90.1551500 142.8290745  81.7719185
  90.3264998 141.1178257  82.2659032  92.4677786 143.2919699  82.6820657
  92.5198866 142.0460970  81.4084997  92.3232520 141.5633657  84.1908065
  92.1290000 139.6840000  89.2200000  90.0750000 140.8310000  88.1040000
  90.1859214 142.0641885  88.9989740  89.3108707 139.7458749  88.8487234
  94.6908790 139.1535784  86.5677728  94.1242276 139.2730000  87.9930000
  92.7070000 139.2730000  87.9930000  92.8280000 138.3010000  88.0240000
  92.3031057 138.7241082  88.7202381  91.9093487 139.5334789  90.2787628
  91.2204599 142.4293217  88.9557677  89.9283039 141.7755211  90.0230313
  89.5284407 142.8471457  88.6232770  89.7179448 138.7720218  88.5557150
  88.2555256 139.8002270  88.5740774  89.4405857 139.9065068  89.9226063
  94.2999904 139.9664292  85.9449391  95.7841579 139.2103141  86.5897570
  94.4733253 140.2027113  88.4513684  94.4697374 138.4524533  88.6305830
  92.4026078 140.2045210  87.9930000  93.6780000 136.8480000  88.1650000
  90.1970000 142.4680000  96.9620000  90.6350000 142.1460000  95.6440000
  92.1516870 142.2790422  95.5760128  92.7578325 141.3784892  96.5002661
  89.2270000 142.3510000  96.9420000  90.1551500 142.8290745  94.9369185
  90.3264998 141.1178257  95.4309032  92.4677786 143.2919699  95.8470657
  92.5198866 142.0460970  94.5734997  92.3232520 141.5633657  97.3558065
  92.1290000 139.6840000 102.3850000  90.0750000 140.8310000 101.2690000
  90.1859214 142.0641885 102.1639740  89.3108707 139.7458749 102.0137234
  94.6908790 139.1535784  99.7327728  94.1242276 139.2730000 101.1580000
  92.7070000 139.2730000 101.1580000  92.8280000 138.3010000 101.1890000
  92.3031057 138.7241082 101.8852381  91.9093487 139.5334789 103.4437628
  91.2204599 142.4293217 102.1207677  89.9283039 141.7755211 103.1880313
  89.5284407 142.8471457 101.7882770  89.7179448 138.7720218 101.7207150
  88.2555256 139.8002270 101.7390774  89.4405857 139.9065068 103.0876063
  94.2999904 139.9664292  99.1099391  95.7841579 139.2103141  99.7547570
  94.4733253 140.2027113 101.6163684  94.4697374 138.4524533 101.7955830
  92.4026078 140.2045210 101.1580000  93.6780000 136.8480000 101.3300000
  90.1970000 142.4680000 110.1270000  90.6350000 142.1460000 108.8090000
  92.1516870 142.2790422 108.7410128  92.7578325 141.3784892 109.6652661
  89.2270000 142.3510000 110.1070000  90.1551500 142.8290745 108.1019185
  90.3264998 141.1178257 108.5959032  92.4677786 143.2919699 109.0120657
  92.5198866 142.0460970 107.7384997  92.3232520 141.5633657 110.5208065
  92.1290000 139.6840000 115.5510000  90.0750000 140.8310000 114.4350000
  90.1859214 142.0641885 115.3299740  89.3108707 139.7458749 115.1797234
  94.6908790 139.1535784 112.8987728  94.1242276 139.2730000 114.3240000
  92.7070000 139.2730000 114.3240000  92.8280000 138.3010000 114.3550000
  92.3031057 138.7241082 115.0512381  91.9093487 139.5334789 116.6097628
  91.2204599 142.4293217 115.2867677  89.9283039 141.7755211 116.3540313
  89.5284407 142.8471457 114.9542770  89.7179448 138.7720218 114.8867150
  88.2555256 139.8002270 114.9050774  89.4405857 139.9065068 116.2536063
  94.2999904 139.9664292 112.2759391  95.7841579 139.2103141 112.9207570
  94.4733253 140.2027113 114.7823684  94.4697374 138.4524533 114.9615830
  92.4026078 140.2045210 114.3240000  93.6780000 136.8480000 114.4960000
  90.1970000 142.4680000 123.2930000  90.6350000 142.1460000 121.9750000
  92.1516870 142.2790422 121.9070128  92.7578325 141.3784892 122.8312661
  89.2270000 142.3510000 123.2730000  90.1551500 142.8290745 121.2679185
  90.3264998 141.1178257 121.7619032  92.4677786 143.2919699 122.1780657
  92.5198866 142.0460970 120.9044997  92.3232520 141.5633657 123.6868065
  92.1290000 139.6840000 128.7160000  90.0750000 140.8310000 127.6000000
  90.1859214 142.0641885 128.4949740  89.3108707 139.7458749 128.3447234
  94.6908790 139.1535784 126.0637728  94.1242276 139.2730000 127.4890000
  92.7070000 139.2730000 127.4890000  92.8280000 138.3010000 127.5200000
  92.3031057 138.7241082 128.2162381  91.9093487 139.5334789 129.7747628
  91.2204599 142.4293217 128.4517677  89.9283039 141.7755211 129.5190313
  89.5284407 142.8471457 128.1192770  89.7179448 138.7720218 128.0517150
  88.2555256 139.8002270 128.0700774  89.4405857 139.9065068 129.4186063
  94.2999904 139.9664292 125.4409391  95.7841579 139.2103141 126.0857570
  94.4733253 140.2027113 127.9473684  94.4697374 138.4524533 128.1265830
  92.4026078 140.2045210 127.4890000  93.6780000 136.8480000 127.6610000
  90.1970000 142.4680000 136.4580000  90.6350000 142.1460000 135.1400000
  92.1516870 142.2790422 135.0720128  92.7578325 141.3784892 135.9962661
  89.2270000 142.3510000 136.4380000  90.1551500 142.8290745 134.4329185
  90.3264998 141.1178257 134.9269032  92.4677786 143.2919699 135.3430657
  92.5198866 142.0460970 134.0694997  92.3232520 141.5633657 136.8518065
  92.1290000 139.6840000 141.8810000  90.0750000 140.8310000 140.7650000
  90.1859214 142.0641885 141.6599740  89.3108707 139.7458749 141.5097234
  94.6908790 139.1535784 139.2287728  94.1242276 139.2730000 140.6540000
  92.7070000 139.2730000 140.6540000  92.8280000 138.3010000 140.6850000
  92.3031057 138.7241082 141.3812381  91.9093487 139.5334789 142.9397628
  91.2204599 142.4293217 141.6167677  89.9283039 141.7755211 142.6840313
  89.5284407 142.8471457 141.2842770  89.7179448 138.7720218 141.2167150
  88.2555256 139.8002270 141.2350774  89.4405857 139.9065068 142.5836063
  94.2999904 139.9664292 138.6059391  95.7841579 139.2103141 139.2507570
  94.4733253 140.2027113 141.1123684  94.4697374 138.4524533 141.2915830
  92.4026078 140.2045210 140.6540000  93.6780000 136.8480000 140.8260000
  90.1970000 142.4680000 149.6230000  90.6350000 142.1460000 148.3050000
  92.1516870 142.2790422 148.2370128  92.7578325 141.3784892 149.1612661
  89.2270000 142.3510000 149.6030000  90.1551500 142.8290745 147.5979185
  90.3264998 141.1178257 148.0919032  92.4677786 143.2919699 148.5080657
  92.5198866 142.0460970 147.2344997  92.3232520 141.5633657 150.0168065
  92.1290000 139.6840000 155.0460000  90.0750000 140.8310000 153.9300000
  90.1859214 142.0641885 154.8249740  89.3108707 139.7458749 154.6747234
  94.6908790 139.1535784 152.3937728  94.1242276 139.2730000 153.8190000
  92.7070000 139.2730000 153.8190000  92.8280000 138.3010000 153.8500000
  92.3031057 138.7241082 154.5462381  91.9093487 139.5334789 156.1047628
  91.2204599 142.4293217 154.7817677  89.9283039 141.7755211 155.8490313
  89.5284407 142.8471457 154.4492770  89.7179448 138.7720218 154.3817150
  88.2555256 139.8002270 154.4000774  89.4405857 139.9065068 155.7486063
  94.2999904 139.9664292 151.7709391  95.7841579 139.2103141 152.4157570
  94.4733253 140.2027113 154.2773684  94.4697374 138.4524533 154.4565830
  92.4026078 140.2045210 153.8190000  93.6780000 136.8480000 153.9910000
  90.1970000 142.4680000 162.7880000  90.6350000 142.1460000 161.4700000
  92.1516870 142.2790422 161.4020128  92.7578325 141.3784892 162.3262661
  89.2270000 142.3510000 162.7680000  90.1551500 142.8290745 160.7629185
  90.3264998 141.1178257 161.2569032  92.4677786 143.2919699 161.6730657
  92.5198866 142.0460970 160.3994997  92.3232520 141.5633657 163.1818065
  92.1290000 139.6840000 168.2110000  90.0750000 140.8310000 167.0950000
  90.1859214 142.0641885 167.9899740  89.3108707 139.7458749 167.8397234
  94.6908790 139.1535784 165.5587728  94.1242276 139.2730000 166.9840000
  92.7070000 139.2730000 166.9840000  92.8280000 138.3010000 167.0150000
  92.3031057 138.7241082 167.7112381  91.9093487 139.5334789 169.2697628
  91.2204599 142.4293217 167.9467677  89.9283039 141.7755211 169.0140313
  89.5284407 142.8471457 167.6142770  89.7179448 138.7720218 167.5467150
  88.2555256 139.8002270 167.5650774  89.4405857 139.9065068 168.9136063
  94.2999904 139.9664292 164.9359391  95.7841579 139.2103141 165.5807570
  94.4733253 140.2027113 167.4423684  94.4697374 138.4524533 167.6215830
  92.4026078 140.2045210 166.9840000  93.6780000 136.8480000 167.1560000
  90.1970000 142.4680000 175.9530000  90.6350000 142.1460000 174.6350000
  92.1516870 142.2790422 174.5670128  92.7578325 141.3784892 175.4912661
  89.2270000 142.3510000 175.9330000  90.1551500 142.8290745 173.9279185
  90.3264998 141.1178257 174.4219032  92.4677786 143.2919699 174.8380657
  92.5198866 142.0460970 173.5644997  92.3232520 141.5633657 176.3468065
  92.1290000 139.6840000 181.3770000  90.0750000 140.8310000 180.2610000
  90.1859214 142.0641885 181.1559740  89.3108707 139.7458749 181.0057234
  94.6908790 139.1535784 178.7247728  94.1242276 139.2730000 180.1500000
  92.7070000 139.2730000 180.1500000  92.8280000 138.3010000 180.1810000
  92.3031057 138.7241082 180.8772381  91.9093487 139.5334789 182.4357628
  91.2204599 142.4293217 181.1127677  89.9283039 141.7755211 182.1800313
  89.5284407 142.8471457 180.7802770  89.7179448 138.7720218 180.7127150
  88.2555256 139.8002270 180.7310774  89.4405857 139.9065068 182.0796063
  94.2999904 139.9664292 178.1019391  95.7841579 139.2103141 178.7467570
  94.4733253 140.2027113 180.6083684  94.4697374 138.4524533 180.7875830
  92.4026078 140.2045210 180.1500000  93.6780000 136.8480000 180.3220000
  90.1970000 142.4680000 189.1190000  90.6350000 142.1460000 187.8010000
  92.1516870 142.2790422 187.7330128  92.7578325 141.3784892 188.6572661
  89.2270000 142.3510000 189.0990000  90.1551500 142.8290745 187.0939185
  90.3264998 141.1178257 187.5879032  92.4677786 143.2919699 188.0040657
  92.5198866 142.0460970 186.7304997  92.3232520 141.5633657 189.5128065
  92.1290000 139.6840000 194.5420000  90.0750000 140.8310000 193.4260000
  90.1859214 142.0641885 194.3209740  89.3108707 139.7458749 194.1707234
  94.6908790 139.1535784 191.8897728  94.1242276 139.2730000 193.3150000
  92.7070000 139.2730000 193.3150000  92.8280000 138.3010000 193.3460000
  92.3031057 138.7241082 194.0422381  91.9093487 139.5334789 195.6007628
  91.2204599 142.4293217 194.2777677  89.9283039 141.7755211 195.3450313
  89.5284407 142.8471457 193.9452770  89.7179448 138.7720218 193.8777150
  88.2555256 139.8002270 193.8960774  89.4405857 139.9065068 195.2446063
  94.2999904 139.9664292 191.2669391  95.7841579 139.2103141 191.9117570
  94.4733253 140.2027113 193.7733684  94.4697374 138.4524533 193.9525830
  92.4026078 140.2045210 193.3150000  93.6780000 136.8480000 193.4870000
  90.1970000 142.4680000 202.2840000  90.6350000 142.1460000 200.9660000
  92.1516870 142.2790422 200.8980128  92.7578325 141.3784892 201.8222661
  89.2270000 142.3510000 202.2640000  90.1551500 142.8290745 200.2589185
  90.3264998 141.1178257 200.7529032  92.4677786 143.2919699 201.1690657
  92.5198866 142.0460970 199.8954997  92.3232520 141.5633657 202.6778065
 104.8070000  73.8360000  76.0550000 102.7530000  74.9830000  74.9390000
 102.8639214  76.2161885  75.8339740 101.9888707  73.8978749  75.6837234
 107.3688790  73.3055784  73.4027728 106.8022276  73.4250000  74.8280000
 105.3850000  73.4250000  74.8280000 105.5060000  72.4530000  74.8590000
 104.9811057  72.8761082  75.5552381 104.5873487  73.6854789  77.1137628
 103.8984599  76.5813217  75.7907677 102.6063039  75.9275211  76.8580313
 102.2064407  76.9991457  75.4582770 102.3959448  72.9240218  75.3907150
 100.9335256  73.9522270  75.4090774 102.1185857  74.0585068  76.7576063
 106.9779904  74.1184292  72.7799391 108.4621579  73.3623141  73.4247570
 107.1513253  74.3547113  75.2863684 107.1477374  72.6044533  75.4655830
 105.0806078  74.3565210  74.8280000 106.3560000  71.0000000  75.0000000
 102.8750000  76.6200000  83.7970000 103.3130000  76.2980000  82.4790000
 104.8296870  76.4310422  82.4110128 105.4358325  75.5304892  83.3352661
 101.9050000  76.5030000  83.7770000 102.8331500  76.9810745  81.7719185
 103.0044998  75.2698257  82.2659032 105.1457786  77.4439699  82.6820657
 105.1978866  76.1980970  81.4084997 105.0012520  75.7153657  84.1908065
 104.8070000  73.8360000  89.2200000 102.7530000  74.9830000  88.1040000
 102.8639214  76.2161885  88.9989740 101.9888707  73.8978749  88.8487234
 107.3688790  73.3055784  86.5677728 106.8022276  73.4250000  87.9930000
 105.3850000  73.4250000  87.9930000 105.5060000  72.4530000  88.0240000
 104.9811057  72.8761082  88.7202381 104.5873487  73.6854789  90.2787628
 103.8984599  76.5813217  88.9557677 102.6063039  75.9275211  90.0230313
 102.2064407  76.9991457  88.6232770 102.3959448  72.9240218  88.5557150
 100.9335256  73.9522270  88.5740774 102.1185857  74.0585068  89.9226063
 106.9779904  74.1184292  85.9449391 108.4621579  73.3623141  86.5897570
 107.1513253  74.3547113  88.4513684 107.1477374  72.6044533  88.6305830
 105.0806078  74.3565210  87.9930000 106.3560000  71.0000000  88.1650000
 102.8750000  76.6200000  96.9620000 103.3130000  76.2980000  95.6440000
 104.8296870  76.4310422  95.5760128 105.4358325  75.5304892  96.5002661
 101.9050000  76.5030000  96.9420000 102.8331500  76.9810745  94.9369185
 103.0044998  75.2698257  95.4309032 105.1457786  77.4439699  95.8470657
 105.1978866  76.1980970  94.5734997 105.0012520  75.7153657  97.3558065
 104.8070000  73.8360000 102.3850000 102.7530000  74.9830000 101.2690000
 102.8639214  76.2161885 102.1639740 101.9888707  73.8978749 102.0137234
 107.3688790  73.3055784  99.7327728 106.8022276  73.4250000 101.1580000
 105.3850000  73.4250000 101.1580000 105.5060000  72.4530000 101.1890000
 104.9811057  72.8761082 101.8852381 104.5873487  73.6854789 103.4437628
 103.8984599  76.5813217 102.1207677 102.6063039  75.9275211 103.1880313
 102.2064407  76.9991457 101.7882770 102.3959448  72.9240218 101.7207150
 100.9335256  73.9522270 101.7390774 102.1185857  74.0585068 103.0876063
 106.9779904  74.1184292  99.1099391 108.4621579  73.3623141  99.7547570
 107.1513253  74.3547113 101.6163684 107.1477374  72.6044533 101.7955830
 105.0806078  74.3565210 101.1580000 106.3560000  71.0000000 101.3300000
 102.8750000  76.6200000 110.1270000 103.3130000  76.2980000 108.8090000
 104.8296870  76.4310422 108.7410128 105.4358325  75.5304892 109.6652661
 101.9050000  76.5030000 110.1070000 102.8331500  76.9810745 108.1019185
 103.0044998  75.2698257 108.5959032 105.1457786  77.4439699 109.0120657
 105.1978866  76.1980970 107.7384997 105.0012520  75.7153657 110.5208065
 104.8070000  73.8360000 115.5510000 102.7530000  74.9830000 114.4350000
 102.8639214  76.2161885 115.3299740 101.9888707  73.8978749 115.1797234
 107.3688790  73.3055784 112.8987728 106.8022276  73.4250000 114.3240000
 105.3850000  73.4250000 114.3240000 105.5060000  72.4530000 114.3550000
 104.9811057  72.8761082 115.0512381 104.5873487  73.6854789 116.6097628
 103.8984599  76.5813217 115.2867677 102.6063039  75.9275211 116.3540313
 102.2064407  76.9991457 114.9542770 102.3959448  72.9240218 114.8867150
 100.9335256  73.9522270 114.9050774 102.1185857  74.0585068 116.2536063
 106.9779904  74.1184292 112.2759391 108.4621579  73.3623141 112.9207570
 107.1513253  74.3547113 114.7823684 107.1477374  72.6044533 114.9615830
 105.0806078  74.3565210 114.3240000 106.3560000  71.0000000 114.4960000
 102.8750000  76.6200000 123.2930000 103.3130000  76.2980000 121.9750000
 104.8296870  76.4310422 121.9070128 105.4358325  75.5304892 122.8312661
 101.9050000  76.5030000 123.2730000 102.8331500  76.9810745 121.2679185
 103.0044998  75.2698257 121.7619032 105.1457786  77.4439699 122.1780657
 105.1978866  76.1980970 120.9044997 105.0012520  75.7153657 123.6868065
 104.8070000  73.8360000 128.7160000 102.7530000  74.9830000 127.6000000
 102.8639214  76.2161885 128.4949740 101.9888707  73.8978749 128.3447234
 107.3688790  73.3055784 126.0637728 106.8022276  73.4250000 127.4890000
 105.3850000  73.4250000 127.4890000 105.5060000  72.4530000 127.5200000
 104.9811057  72.8761082 128.2162381 104.5873487  73.6854789 129.7747628
 103.8984599  76.5813217 128.4517677 102.6063039  75.9275211 129.5190313
 102.2064407  76.9991457 128.1192770 102.3959448  72.9240218 128.0517150
 100.9335256  73.9522270 128.0700774 102.1185857  74.0585068 129.4186063
 106.9779904  74.1184292 125.4409391 108.4621579  73.3623141 126.0857570
 107.1513253  74.3547113 127.9473684 107.1477374  72.6044533 128.1265830
 105.0806078  74.3565210 127.4890000 106.3560000  71.0000000 127.6610000
 102.8750000  76.6200000 136.4580000 103.3130000  76.2980000 135.1400000
 104.8296870  76.4310422 135.0720128 105.4358325  75.5304892 135.9962661
 101.9050000  76.5030000 136.4380000 102.8331500  76.9810745 134.4329185
 103.0044998  75.2698257 134.9269032 105.1457786  77.4439699 135.3430657
 105.1978866  76.1980970 134.0694997 105.0012520  75.7153657 136.8518065
 104.8070000  73.8360000 141.8810000 102.7530000  74.9830000 140.7650000
 102.8639214  76.2161885 141.6599740 101.9888707  73.8978749 141.5097234
 107.3688790  73.3055784 139.2287728 106.8022276  73.4250000 140.6540000
 105.3850000  73.4250000 140.6540000 105.5060000  72.4530000 140.6850000
 104.9811057  72.8761082 141.3812381 104.5873487  73.6854789 142.9397628
 103.8984599  76.5813217 141.6167677 102.6063039  75.9275211 142.6840313
 102.2064407  76.9991457 141.2842770 102.3959448  72.9240218 141.2167150
 100.9335256  73.9522270 141.2350774 102.1185857  74.0585068 142.5836063
 106.9779904  74.1184292 138.6059391 108.4621579  73.3623141 139.2507570
 107.1513253  74.3547113 141.1123684 107.1477374  72.6044533 141.2915830
 105.0806078  74.3565210 140.6540000 106.3560000  71.0000000 140.8260000
 102.8750000  76.6200000 149.6230000 103.3130000  76.2980000 148.3050000
 104.8296870  76.4310422 148.2370128 105.4358325  75.5304892 149.1612661
 101.9050000  76.5030000 149.6030000 102.8331500  76.9810745 147.5979185
 103.0044998  75.2698257 148.0919032 105.1457786  77.4439699 148.5080657
 105.1978866  76.1980970 147.2344997 105.0012520  75.7153657 150.0168065
 104.8070000  73.8360000 155.0460000 102.7530000  74.9830000 153.9300000
 102.8639214  76.2161885 154.8249740 101.9888707  73.8978749 154.6747234
 107.3688790  73.3055784 152.3937728 106.8022276  73.4250000 153.8190000
 105.3850000  73.4250000 153.8190000 105.5060000  72.4530000 153.8500000
 104.9811057  72.8761082 154.5462381 104.5873487  73.6854789 156.1047628
 103.8984599  76.5813217 154.7817677 102.6063039  75.9275211 155.8490313
 102.2064407  76.9991457 154.4492770 102.3959448  72.9240218 154.3817150
 100.9335256  73.9522270 154.4000774 102.1185857  74.0585068 155.7486063
 106.9779904  74.1184292 151.7709391 108.4621579  73.3623141 152.4157570
 107.1513253  74.3547113 154.2773684 107.1477374  72.6044533 154.4565830
 105.0806078  74.3565210 153.8190000 106.3560000  71.0000000 153.9910000
 102.8750000  76.6200000 162.7880000 103.3130000  76.2980000 161.4700000
 104.8296870  76.4310422 161.4020128 105.4358325  75.5304892 162.3262661
 101.9050000  76.5030000 162.7680000 102.8331500  76.9810745 160.7629185
 103.0044998  75.2698257 161.2569032 105.1457786  77.4439699 161.6730657
 105.1978866  76.1980970 160.3994997 105.0012520  75.7153657 163.1818065
 104.8070000  73.8360000 168.2110000 102.7530000  74.9830000 167.0950000
 102.8639214  76.2161885 167.9899740 101.9888707  73.8978749 167.8397234
 107.3688790  73.3055784 165.5587728 106.8022276  73.4250000 166.9840000
 105.3850000  73.4250000 166.9840000 105.5060000  72.4530000 167.0150000
 104.9811057  72.8761082 167.7112381 104.5873487  73.6854789 169.2697628
 103.8984599  76.5813217 167.9467677 102.6063039  75.9275211 169.0140313
 102.2064407  76.9991457 167.6142770 102.3959448  72.9240218 167.5467150
 100.9335256  73.9522270 167.5650774 102.1185857  74.0585068 168.9136063
 106.9779904  74.1184292 164.9359391 108.4621579  73.3623141 165.5807570
 107.1513253  74.3547113 167.4423684 107.1477374  72.6044533 167.6215830
 105.0806078  74.3565210 166.9840000 106.3560000  71.0000000 167.1560000
 102.8750000  76.6200000 175.9530000 103.3130000  76.2980000 174.6350000
 104.8296870  76.4310422 174.5670128 105.4358325  75.5304892 175.4912661
 101.9050000  76.5030000 175.9330000 102.8331500  76.9810745 173.9279185
 103.0044998  75.2698257 174.4219032 105.1457786  77.4439699 174.8380657
 105.1978866  76.1980970 173.5644997 105.0012520  75.7153657 176.3468065
 104.8070000  73.8360000 181.3770000 102.7530000  74.9830000 180.2610000
 102.8639214  76.2161885 181.1559740 101.9888707  73.8978749 181.0057234
 107.3688790  73.3055784 178.7247728 106.8022276  73.4250000 180.1500000
 105.3850000  73.4250000 180.1500000 105.5060000  72.4530000 180.1810000
 104.9811057  72.8761082 180.8772381 104.5873487  73.6854789 182.4357628
 103.8984599  76.5813217 181.1127677 102.6063039  75.9275211 182.1800313
 102.2064407  76.9991457 180.7802770 102.3959448  72.9240218 180.7127150
 100.9335256  73.9522270 180.7310774 102.1185857  74.0585068 182.0796063
 106.9779904  74.1184292 178.1019391 108.4621579  73.3623141 178.7467570
 107.1513253  74.3547113 180.6083684 107.1477374  72.6044533 180.7875830
 105.0806078  74.3565210 180.1500000 106.3560000  71.0000000 180.3220000
 102.8750000  76.6200000 189.1190000 103.3130000  76.2980000 187.8010000
 104.8296870  76.4310422 187.7330128 105.4358325  75.5304892 188.6572661
 101.9050000  76.5030000 189.0990000 102.8331500  76.9810745 187.0939185
 103.0044998  75.2698257 187.5879032 105.1457786  77.4439699 188.0040657
 105.1978866  76.1980970 186.7304997 105.0012520  75.7153657 189.5128065
 104.8070000  73.8360000 194.5420000 102.7530000  74.9830000 193.4260000
 102.8639214  76.2161885 194.3209740 101.9888707  73.8978749 194.1707234
 107.3688790  73.3055784 191.8897728 106.8022276  73.4250000 193.3150000
 105.3850000  73.4250000 193.3150000 105.5060000  72.4530000 193.3460000
 104.9811057  72.8761082 194.0422381 104.5873487  73.6854789 195.6007628
 103.8984599  76.5813217 194.2777677 102.6063039  75.9275211 195.3450313
 102.2064407  76.9991457 193.9452770 102.3959448  72.9240218 193.8777150
 100.9335256  73.9522270 193.8960774 102.1185857  74.0585068 195.2446063
 106.9779904  74.1184292 191.2669391 108.4621579  73.3623141 191.9117570
 107.1513253  74.3547113 193.7733684 107.1477374  72.6044533 193.9525830
 105.0806078  74.3565210 193.3150000 106.3560000  71.0000000 193.4870000
 102.8750000  76.6200000 202.2840000 103.3130000  76.2980000 200.9660000
 104.8296870  76.4310422 200.8980128 105.4358325  75.5304892 201.8222661
 101.9050000  76.5030000 202.2640000 102.8331500  76.9810745 200.2589185
 103.0044998  75.2698257 200.7529032 105.1457786  77.4439699 201.1690657
 105.1978866  76.1980970 199.8954997 105.0012520  75.7153657 202.6778065
 104.8070000  81.1520000  76.0550000 102.7530000  82.2990000  74.9390000
 102.8639214  83.5321885  75.8339740 101.9888707  81.2138749  75.6837234
 107.3688790  80.6215784  73.4027728 106.8022276  80.7410000  74.8280000
 105.3850000  80.7410000  74.8280000 105.5060000  79.7690000  74.8590000
 104.9811057  80.1921082  75.5552381 104.5873487  81.0014789  77.1137628
 103.8984599  83.8973217  75.7907677 102.6063039  83.2435211  76.8580313
 102.2064407  84.3151457  75.4582770 102.3959448  80.2400218  75.3907150
 100.9335256  81.2682270  75.4090774 102.1185857  81.3745068  76.7576063
 106.9779904  81.4344292  72.7799391 108.4621579  80.6783141  73.4247570
 107.1513253  81.6707113  75.2863684 107.1477374  79.9204533  75.4655830
 105.0806078  81.6725210  74.8280000 106.3560000  78.3160000  75.0000000
 102.8750000  83.9360000  83.7970000 103.3130000  83.6140000  82.4790000
 104.8296870  83.7470422  82.4110128 105.4358325  82.8464892  83.3352661
 101.9050000  83.8190000  83.7770000 102.8331500  84.2970745  81.7719185
 103.0044998  82.5858257  82.2659032 105.1457786  84.7599699  82.6820657
 105.1978866  83.5140970  81.4084997 105.0012520  83.0313657  84.1908065
 104.8070000  81.1520000  89.2200000 102.7530000  82.2990000  88.1040000
 102.8639214  83.5321885  88.9989740 101.9888707  81.2138749  88.8487234
 107.3688790  80.6215784  86.5677728 106.8022276  80.7410000  87.9930000
 105.3850000  80.7410000  87.9930000 105.5060000  79.7690000  88.0240000
 104.9811057  80.1921082  88.7202381 104.5873487  81.0014789  90.2787628
 103.8984599  83.8973217  88.9557677 102.6063039  83.2435211  90.0230313
 102.2064407  84.3151457  88.6232770 102.3959448  80.2400218  88.5557150
 100.9335256  81.2682270  88.5740774 102.1185857  81.3745068  89.9226063
 106.9779904  81.4344292  85.9449391 108.4621579  80.6783141  86.5897570
 107.1513253  81.6707113  88.4513684 107.1477374  79.9204533  88.6305830
 105.0806078  81.6725210  87.9930000 106.3560000  78.3160000  88.1650000
 102.8750000  83.9360000  96.9620000 103.3130000  83.6140000  95.6440000
 104.8296870  83.7470422  95.5760128 105.4358325  82.8464892  96.5002661
 101.9050000  83.8190000  96.9420000 102.8331500  84.2970745  94.9369185
 103.0044998  82.5858257  95.4309032 105.1457786  84.7599699  95.8470657
 105.1978866  83.5140970  94.5734997 105.0012520  83.0313657  97.3558065
 104.8070000  81.1520000 102.3850000 102.7530000  82.2990000 101.2690000
 102.8639214  83.5321885 102.1639740 101.9888707  81.2138749 102.0137234
 107.3688790  80.6215784  99.7327728 106.8022276  80.7410000 101.1580000
 105.3850000  80.7410000 101.1580000 105.5060000  79.7690000 101.1890000
 104.9811057  80.1921082 101.8852381 104.5873487  81.0014789 103.4437628
 103.8984599  83.8973217 102.1207677 102.6063039  83.2435211 103.1880313
 102.2064407  84.3151457 101.7882770 102.3959448  80.2400218 101.7207150
 100.9335256  81.2682270 101.7390774 102.1185857  81.3745068 103.0876063
 106.9779904  81.4344292  99.1099391 108.4621579  80.6783141  99.7547570
 107.1513253  81.6707113 101.6163684 107.1477374  79.9204533 101.7955830
 105.0806078  81.6725210 101.1580000 106.3560000  78.3160000 101.3300000
 102.8750000  83.9360000 110.1270000 103.3130000  83.6140000 108.8090000
 104.8296870  83.7470422 108.7410128 105.4358325  82.8464892 109.6652661
 101.9050000  83.8190000 110.1070000 102.8331500  84.2970745 108.1019185
 103.0044998  82.5858257 108.5959032 105.1457786  84.7599699 109.0120657
 105.1978866  83.5140970 107.7384997 105.0012520  83.0313657 110.5208065
 104.8070000  81.1520000 115.5510000 102.7530000  82.2990000 114.4350000
 102.8639214  83.5321885 115.3299740 101.9888707  81.2138749 115.1797234
 107.3688790  80.6215784 112.8987728 106.8022276  80.7410000 114.3240000
 105.3850000  80.7410000 114.3240000 105.5060000  79.7690000 114.3550000
 104.9811057  80.1921082 115.0512381 104.5873487  81.0014789 116.6097628
 103.8984599  83.8973217 115.2867677 102.6063039  83.2435211 116.3540313
 102.2064407  84.3151457 114.9542770 102.3959448  80.2400218 114.8867150
 100.9335256  81.2682270 114.9050774 102.1185857  81.3745068 116.2536063
 106.9779904  81.4344292 112.2759391 108.4621579  80.6783141 112.9207570
 107.1513253  81.6707113 114.7823684 107.1477374  79.9204533 114.9615830
 105.0806078  81.6725210 114.3240000 106.3560000  78.3160000 114.4960000
 102.8750000  83.9360000 123.2930000 103.3130000  83.6140000 121.9750000
 104.8296870  83.7470422 121.9070128 105.4358325  82.8464892 122.8312661
 101.9050000  83.8190000 123.2730000 102.8331500  84.2970745 121.2679185
 103.0044998  82.5858257 121.7619032 105.1457786  84.7599699 122.1780657
 105.1978866  83.5140970 120.9044997 105.0012520  83.0313657 123.6868065
 104.8070000  81.1520000 128.7160000 102.7530000  82.2990000 127.6000000
 102.8639214  83.5321885 128.4949740 101.9888707  81.2138749 128.3447234
 107.3688790  80.6215784 126.0637728 106.8022276  80.7410000 127.4890000
 105.3850000  80.7410000 127.4890000 105.5060000  79.7690000 127.5200000
 104.9811057  80.1921082 128.2162381 104.5873487  81.0014789 129.7747628
 103.8984599  83.8973217 128.4517677 102.6063039  83.2435211 129.5190313
 102.2064407  84.3151457 128.1192770 102.3959448  80.2400218 128.0517150
 100.9335256  81.2682270 128.0700774 102.1185857  81.3745068 129.4186063
 106.9779904  81.4344292 125.4409391 108.4621579  80.6783141 126.0857570
 107.1513253  81.6707113 127.9473684 107.1477374  79.9204533 128.1265830
 105.0806078  81.6725210 127.4890000 106.3560000  78.3160000 127.6610000
 102.8750000  83.9360000 136.4580000 103.3130000  83.6140000 135.1400000
 104.8296870  83.7470422 135.0720128 105.4358325  82.8464892 135.9962661
 101.9050000  83.8190000 136.4380000 102.8331500  84.2970745 134.4329185
 103.0044998  82.5858257 134.9269032 105.1457786  84.7599699 135.3430657
 105.1978866  83.5140970 134.0694997 105.0012520  83.0313657 136.8518065
 104.8070000  81.1520000 141.8810000 102.7530000  82.2990000 140.7650000
 102.8639214  83.5321885 141.6599740 101.9888707  81.2138749 141.5097234
 107.3688790  80.6215784 139.2287728 106.8022276  80.7410000 140.6540000
 105.3850000  80.7410000 140.6540000 105.5060000  79.7690000 140.6850000
 104.9811057  80.1921082 141.3812381 104.5873487  81.0014789 142.9397628
 103.8984599  83.8973217 141.6167677 102.6063039  83.2435211 142.6840313
 102.2064407  84.3151457 141.2842770 102.3959448  80.2400218 141.2167150
 100.9335256  81.2682270 141.2350774 102.1185857  81.3745068 142.5836063
 106.9779904  81.4344292 138.6059391 108.4621579  80.6783141 139.2507570
 107.1513253  81.6707113 141.1123684 107.1477374  79.9204533 141.2915830
 105.0806078  81.6725210 140.6540000 106.3560000  78.3160000 140.8260000
 102.8750000  83.9360000 149.6230000 103.3130000  83.6140000 148.3050000
 104.8296870  83.7470422 148.2370128 105.4358325  82.8464892 149.1612661
 101.9050000  83.8190000 149.6030000 102.8331500  84.2970745 147.5979185
 103.0044998  82.5858257 148.0919032 105.1457786  84.7599699 148.5080657
 105.1978866  83.5140970 147.2344997 105.0012520  83.0313657 150.0168065
 104.8070000  81.1520000 155.0460000 102.7530000  82.2990000 153.9300000
 102.8639214  83.5321885 154.8249740 101.9888707  81.2138749 154.6747234
 107.3688790  80.6215784 152.3937728 106.8022276  80.7410000 153.8190000
 105.3850000  80.7410000 153.8190000 105.5060000  79.7690000 153.8500000
 104.9811057  80.1921082 154.5462381 104.5873487  81.0014789 156.1047628
 103.8984599  83.8973217 154.7817677 102.6063039  83.2435211 155.8490313
 102.2064407  84.3151457 154.4492770 102.3959448  80.2400218 154.3817150
 100.9335256  81.2682270 154.4000774 102.1185857  81.3745068 155.7486063
 106.9779904  81.4344292 151.7709391 108.4621579  80.6783141 152.4157570
 107.1513253  81.6707113 154.2773684 107.1477374  79.9204533 154.4565830
 105.0806078  81.6725210 153.8190000 106.3560000  78.3160000 153.9910000
 102.8750000  83.9360000 162.7880000 103.3130000  83.6140000 161.4700000
 104.8296870  83.7470422 161.4020128 105.4358325  82.8464892 162.3262661
 101.9050000  83.8190000 162.7680000 102.8331500  84.2970745 160.7629185
 103.0044998  82.5858257 161.2569032 105.1457786  84.7599699 161.6730657
 105.1978866  83.5140970 160.3994997 105.0012520  83.0313657 163.1818065
 104.8070000  81.1520000 168.2110000 102.7530000  82.2990000 167.0950000
 102.8639214  83.5321885 167.9899740 101.9888707  81.2138749 167.8397234
 107.3688790  80.6215784 165.5587728 106.8022276  80.7410000 166.9840000
 105.3850000  80.7410000 166.9840000 105.5060000  79.7690000 167.0150000
 104.9811057  80.1921082 167.7112381 104.5873487  81.0014789 169.2697628
 103.8984599  83.8973217 167.9467677 102.6063039  83.2435211 169.0140313
 102.2064407  84.3151457 167.6142770 102.3959448  80.2400218 167.5467150
 100.9335256  81.2682270 167.5650774 102.1185857  81.3745068 168.9136063
 106.9779904  81.4344292 164.9359391 108.4621579  80.6783141 165.5807570
 107.1513253  81.6707113 167.4423684 107.1477374  79.9204533 167.6215830
 105.0806078  81.6725210 166.9840000 106.3560000  78.3160000 167.1560000
 102.8750000  83.9360000 175.9530000 103.3130000  83.6140000 174.6350000
 104.8296870  83.7470422 174.5670128 105.4358325  82.8464892 175.4912661
 101.9050000  83.8190000 175.9330000 102.8331500  84.2970745 173.9279185
 103.0044998  82.5858257 174.4219032 105.1457786  84.7599699 174.8380657
 105.1978866  83.5140970 173.5644997 105.0012520  83.0313657 176.3468065
 104.8070000  81.1520000 181.3770000 102.7530000  82.2990000 180.2610000
 102.8639214  83.5321885 181.1559740 101.9888707  81.2138749 181.0057234
 107.3688790  80.6215784 178.7247728 106.8022276  80.7410000 180.1500000
 105.3850000  80.7410000 180.1500000 105.5060000  79.7690000 180.1810000
 104.9811057  80.1921082 180.8772381 104.5873487  81.0014789 182.4357628
 103.8984599  83.8973217 181.1127677 102.6063039  83.2435211 182.1800313
 102.2064407  84.3151457 180.7802770 102.3959448  80.2400218 180.7127150
 100.9335256  81.2682270 180.7310774 102.1185857  81.3745068 182.0796063
 106.9779904  81.4344292 178.1019391 108.4621579  80.6783141 178.7467570
 107.1513253  81.6707113 180.6083684 107.1477374  79.9204533 180.7875830
 105.0806078  81.6725210 180.1500000 106.3560000  78.3160000 180.3220000
 102.8750000  83.9360000 189.1190000 103.3130000  83.6140000 187.8010000
 104.8296870  83.7470422 187.7330128 105.4358325  82.8464892 188.6572661
 101.9050000  83.8190000 189.0990000 102.8331500  84.2970745 187.0939185
 103.0044998  82.5858257 187.5879032 105.1457786  84.7599699 188.0040657
 105.1978866  83.5140970 186.7304997 105.0012520  83.0313657 189.5128065
 104.8070000  81.1520000 194.5420000 102.7530000  82.2990000 193.4260000
 102.8639214  83.5321885 194.3209740 101.9888707  81.2138749 194.1707234
 107.3688790  80.6215784 191.8897728 106.8022276  80.7410000 193.3150000
 105.3850000  80.7410000 193.3150000 105.5060000  79.7690000 193.3460000
 104.9811057  80.1921082 194.0422381 104.5873487  81.0014789 195.6007628
 103.8984599  83.8973217 194.2777677 102.6063039  83.2435211 195.3450313
 102.2064407  84.3151457 193.9452770 102.3959448  80.2400218 193.8777150
 100.9335256  81.2682270 193.8960774 102.1185857  81.3745068 195.2446063
 106.9779904  81.4344292 191.2669391 108.4621579  80.6783141 191.9117570
 107.1513253  81.6707113 193.7733684 107.1477374  79.9204533 193.9525830
 105.0806078  81.6725210 193.3150000 106.3560000  78.3160000 193.4870000
 102.8750000  83.9360000 202.2840000 103.3130000  83.6140000 200.9660000
 104.8296870  83.7470422 200.8980128 105.4358325  82.8464892 201.8222661
 101.9050000  83.8190000 202.2640000 102.8331500  84.2970745 200.2589185
 103.0044998  82.5858257 200.7529032 105.1457786  84.7599699 201.1690657
 105.1978866  83.5140970 199.8954997 105.0012520  83.0313657 202.6778065
 104.8070000  88.4690000  76.0550000 102.7530000  89.6160000  74.9390000
 102.8639214  90.8491885  75.8339740 101.9888707  88.5308749  75.6837234
 107.3688790  87.9385784  73.4027728 106.8022276  88.0580000  74.8280000
 105.3850000  88.0580000  74.8280000 105.5060000  87.0860000  74.8590000
 104.9811057  87.5091082  75.5552381 104.5873487  88.3184789  77.1137628
 103.8984599  91.2143217  75.7907677 102.6063039  90.5605211  76.8580313
 102.2064407  91.6321457  75.4582770 102.3959448  87.5570218  75.3907150
 100.9335256  88.5852270  75.4090774 102.1185857  88.6915068  76.7576063
 106.9779904  88.7514292  72.7799391 108.4621579  87.9953141  73.4247570
 107.1513253  88.9877113  75.2863684 107.1477374  87.2374533  75.4655830
 105.0806078  88.9895210  74.8280000 106.3560000  85.6330000  75.0000000
 102.8750000  91.2530000  83.7970000 103.3130000  90.9310000  82.4790000
 104.8296870  91.0640422  82.4110128 105.4358325  90.1634892  83.3352661
 101.9050000  91.1360000  83.7770000 102.8331500  91.6140745  81.7719185
 103.0044998  89.9028257  82.2659032 105.1457786  92.0769699  82.6820657
 105.1978866  90.8310970  81.4084997 105.0012520  90.3483657  84.1908065
 104.8070000  88.4690000  89.2200000 102.7530000  89.6160000  88.1040000
 102.8639214  90.8491885  88.9989740 101.9888707  88.5308749  88.8487234
 107.3688790  87.9385784  86.5677728 106.8022276  88.0580000  87.9930000
 105.3850000  88.0580000  87.9930000 105.5060000  87.0860000  88.0240000
 104.9811057  87.5091082  88.7202381 104.5873487  88.3184789  90.2787628
 103.8984599  91.2143217  88.9557677 102.6063039  90.5605211  90.0230313
 102.2064407  91.6321457  88.6232770 102.3959448  87.5570218  88.5557150
 100.9335256  88.5852270  88.5740774 102.1185857  88.6915068  89.9226063
 106.9779904  88.7514292  85.9449391 108.4621579  87.9953141  86.5897570
 107.1513253  88.9877113  88.4513684 107.1477374  87.2374533  88.6305830
 105.0806078  88.9895210  87.9930000 106.3560000  85.6330000  88.1650000
 102.8750000  91.2530000  96.9620000 103.3130000  90.9310000  95.6440000
 104.8296870  91.0640422  95.5760128 105.4358325  90.1634892  96.5002661
 101.9050000  91.1360000  96.9420000 102.8331500  91.6140745  94.9369185
 103.0044998  89.9028257  95.4309032 105.1457786  92.0769699  95.8470657
 105.1978866  90.8310970  94.5734997 105.0012520  90.3483657  97.3558065
 104.8070000  88.4690000 102.3850000 102.7530000  89.6160000 101.2690000
 102.8639214  90.8491885 102.1639740 101.9888707  88.5308749 102.0137234
 107.3688790  87.9385784  99.7327728 106.8022276  88.0580000 101.1580000
 105.3850000  88.0580000 101.1580000 105.5060000  87.0860000 101.1890000
 104.9811057  87.5091082 101.8852381 104.5873487  88.3184789 103.4437628
 103.8984599  91.2143217 102.1207677 102.6063039  90.5605211 103.1880313
 102.2064407  91.6321457 101.7882770 102.3959448  87.5570218 101.7207150
 100.9335256  88.5852270 101.7390774 102.1185857  88.6915068 103.0876063
 106.9779904  88.7514292  99.1099391 108.4621579  87.9953141  99.7547570
 107.1513253  88.9877113 101.6163684 107.1477374  87.2374533 101.7955830
 105.0806078  88.9895210 101.1580000 106.3560000  85.6330000 101.3300000
 102.8750000  91.2530000 110.1270000 103.3130000  90.9310000 108.8090000
 104.8296870  91.0640422 108.7410128 105.4358325  90.1634892 109.6652661
 101.9050000  91.1360000 110.1070000 102.8331500  91.6140745 108.1019185
 103.0044998  89.9028257 108.5959032 105.1457786  92.0769699 109.0120657
 105.1978866  90.8310970 107.7384997 105.0012520  90.3483657 110.5208065
 104.8070000  88.4690000 115.5510000 102.7530000  89.6160000 114.4350000
 102.8639214  90.8491885 115.3299740 101.9888707  88.5308749 115.1797234
 107.3688790  87.9385784 112.8987728 106.8022276  88.0580000 114.3240000
 105.3850000  88.0580000 114.3240000 105.5060000  87.0860000 114.3550000
 104.9811057  87.5091082 115.0512381 104.5873487  88.3184789 116.6097628
 103.8984599  91.2143217 115.2867677 102.6063039  90.5605211 116.3540313
 102.2064407  91.6321457 114.9542770 102.3959448  87.5570218 114.8867150
 100.9335256  88.5852270 114.9050774 102.1185857  88.6915068 116.2536063
 106.9779904  88.7514292 112.2759391 108.4621579  87.9953141 112.9207570
 107.1513253  88.9877113 114.7823684 107.1477374  87.2374533 114.9615830
 105.0806078  88.9895210 114.3240000 106.3560000  85.6330000 114.4960000
 102.8750000  91.2530000 123.2930000 103.3130000  90.9310000 121.9750000
 104.8296870  91.0640422 121.9070128 105.4358325  90.1634892 122.8312661
 101.9050000  91.1360000 123.2730000 102.8331500  91.6140745 121.2679185
 103.0044998  89.9028257 121.7619032 105.1457786  92.0769699 122.1780657
 105.1978866  90.8310970 120.9044997 105.0012520  90.3483657 123.6868065
 104.8070000  88.4690000 128.7160000 102.7530000  89.6160000 127.6000000
 102.8639214  90.8491885 128.4949740 101.9888707  88.5308749 128.3447234
 107.3688790  87.9385784 126.0637728 106.8022276  88.0580000 127.4890000
 105.3850000  88.0580000 127.4890000 105.5060000  87.0860000 127.5200000
 104.9811057  87.5091082 128.2162381 104.5873487  88.3184789 129.7747628
 103.8984599  91.2143217 128.4517677 102.6063039  90.5605211 129.5190313
 102.2064407  91.6321457 128.1192770 102.3959448  87.5570218 128.0517150
 100.9335256  88.5852270 128.0700774 102.1185857  88.6915068 129.4186063
 106.9779904  88.7514292 125.4409391 108.4621579  87.9953141 126.0857570
 107.1513253  88.9877113 127.9473684 107.1477374  87.2374533 128.1265830
 105.0806078  88.9895210 127.4890000 106.3560000  85.6330000 127.6610000
 102.8750000  91.2530000 136.4580000 103.3130000  90.9310000 135.1400000
 104.8296870  91.0640422 135.0720128 105.4358325  90.1634892 135.9962661
 101.9050000  91.1360000 136.4380000 102.8331500  91.6140745 134.4329185
 103.0044998  89.9028257 134.9269032 105.1457786  92.0769699 135.3430657
 105.1978866  90.8310970 134.0694997 105.0012520  90.3483657 136.8518065
 104.8070000  88.4690000 141.8810000 102.7530000  89.6160000 140.7650000
 102.8639214  90.8491885 141.6599740 101.9888707  88.5308749 141.5097234
 107.3688790  87.9385784 139.2287728 106.8022276  88.0580000 140.6540000
 105.3850000  88.0580000 140.6540000 105.5060000  87.0860000 140.6850000
 104.9811057  87.5091082 141.3812381 104.5873487  88.3184789 142.9397628
 103.8984599  91.2143217 141.6167677 102.6063039  90.5605211 142.6840313
 102.2064407  91.6321457 141.2842770 102.3959448  87.5570218 141.2167150
 100.9335256  88.5852270 141.2350774 102.1185857  88.6915068 142.5836063
 106.9779904  88.7514292 138.6059391 108.4621579  87.9953141 139.2507570
 107.1513253  88.9877113 141.1123684 107.1477374  87.2374533 141.2915830
 105.0806078  88.9895210 140.6540000 106.3560000  85.6330000 140.8260000
 102.8750000  91.2530000 149.6230000 103.3130000  90.9310000 148.3050000
 104.8296870  91.0640422 148.2370128 105.4358325  90.1634892 149.1612661
 101.9050000  91.1360000 149.6030000 102.8331500  91.6140745 147.5979185
 103.0044998  89.9028257 148.0919032 105.1457786  92.0769699 148.5080657
 105.1978866  90.8310970 147.2344997 105.0012520  90.3483657 150.0168065
 104.8070000  88.4690000 155.0460000 102.7530000  89.6160000 153.9300000
 102.8639214  90.8491885 154.8249740 101.9888707  88.5308749 154.6747234
 107.3688790  87.9385784 152.3937728 106.8022276  88.0580000 153.8190000
 105.3850000  88.0580000 153.8190000 105.5060000  87.0860000 153.8500000
 104.9811057  87.5091082 154.5462381 104.5873487  88.3184789 156.1047628
 103.8984599  91.2143217 154.7817677 102.6063039  90.5605211 155.8490313
 102.2064407  91.6321457 154.4492770 102.3959448  87.5570218 154.3817150
 100.9335256  88.5852270 154.4000774 102.1185857  88.6915068 155.7486063
 106.9779904  88.7514292 151.7709391 108.4621579  87.9953141 152.4157570
 107.1513253  88.9877113 154.2773684 107.1477374  87.2374533 154.4565830
 105.0806078  88.9895210 153.8190000 106.3560000  85.6330000 153.9910000
 102.8750000  91.2530000 162.7880000 103.3130000  90.9310000 161.4700000
 104.8296870  91.0640422 161.4020128 105.4358325  90.1634892 162.3262661
 101.9050000  91.1360000 162.7680000 102.8331500  91.6140745 160.7629185
 103.0044998  89.9028257 161.2569032 105.1457786  92.0769699 161.6730657
 105.1978866  90.8310970 160.3994997 105.0012520  90.3483657 163.1818065
 104.8070000  88.4690000 168.2110000 102.7530000  89.6160000 167.0950000
 102.8639214  90.8491885 167.9899740 101.9888707  88.5308749 167.8397234
 107.3688790  87.9385784 165.5587728 106.8022276  88.0580000 166.9840000
 105.3850000  88.0580000 166.9840000 105.5060000  87.0860000 167.0150000
 104.9811057  87.5091082 167.7112381 104.5873487  88.3184789 169.2697628
 103.8984599  91.2143217 167.9467677 102.6063039  90.5605211 169.0140313
 102.2064407  91.6321457 167.6142770 102.3959448  87.5570218 167.5467150
 100.9335256  88.5852270 167.5650774 102.1185857  88.6915068 168.9136063
 106.9779904  88.7514292 164.9359391 108.4621579  87.9953141 165.5807570
 107.1513253  88.9877113 167.4423684 107.1477374  87.2374533 167.6215830
 105.0806078  88.9895210 166.9840000 106.3560000  85.6330000 167.1560000
 102.8750000  91.2530000 175.9530000 103.3130000  90.9310000 174.6350000
 104.8296870  91.0640422 174.5670128 105.4358325  90.1634892 175.4912661
 101.9050000  91.1360000 175.9330000 102.8331500  91.6140745 173.9279185
 103.0044998  89.9028257 174.4219032 105.1457786  92.0769699 174.8380657
 105.1978866  90.8310970 173.5644997 105.0012520  90.3483657 176.3468065
 104.8070000  88.4690000 181.3770000 102.7530000  89.6160000 180.2610000
 102.8639214  90.8491885 181.1559740 101.9888707  88.5308749 181.0057234
 107.3688790  87.9385784 178.7247728 106.8022276  88.0580000 180.1500000
 105.3850000  88.0580000 180.1500000 105.5060000  87.0860000 180.1810000
 104.9811057  87.5091082 180.8772381 104.5873487  88.3184789 182.4357628
 103.8984599  91.2143217 181.1127677 102.6063039  90.5605211 182.1800313
 102.2064407  91.6321457 180.7802770 102.3959448  87.5570218 180.7127150
 100.9335256  88.5852270 180.7310774 102.1185857  88.6915068 182.0796063
 106.9779904  88.7514292 178.1019391 108.4621579  87.9953141 178.7467570
 107.1513253  88.9877113 180.6083684 107.1477374  87.2374533 180.7875830
 105.0806078  88.9895210 180.1500000 106.3560000  85.6330000 180.3220000
 102.8750000  91.2530000 189.1190000 103.3130000  90.9310000 187.8010000
 104.8296870  91.0640422 187.7330128 105.4358325  90.1634892 188.6572661
 101.9050000  91.1360000 189.0990000 102.8331500  91.6140745 187.0939185
 103.0044998  89.9028257 187.5879032 105.1457786  92.0769699 188.0040657
 105.1978866  90.8310970 186.7304997 105.0012520  90.3483657 189.5128065
 104.8070000  88.4690000 194.5420000 102.7530000  89.6160000 193.4260000
 102.8639214  90.8491885 194.3209740 101.9888707  88.5308749 194.1707234
 107.3688790  87.9385784 191.8897728 106.8022276  88.0580000 193.3150000
 105.3850000  88.0580000 193.3150000 105.5060000  87.0860000 193.3460000
 104.9811057  87.5091082 194.0422381 104.5873487  88.3184789 195.6007628
 103.8984599  91.2143217 194.2777677 102.6063039  90.5605211 195.3450313
 102.2064407  91.6321457 193.9452770 102.3959448  87.5570218 193.8777150
 100.9335256  88.5852270 193.8960774 102.1185857  88.6915068 195.2446063
 106.9779904  88.7514292 191.2669391 108.4621579  87.9953141 191.9117570
 107.1513253  88.9877113 193.7733684 107.1477374  87.2374533 193.9525830
 105.0806078  88.9895210 193.3150000 106.3560000  85.6330000 193.4870000
 102.8750000  91.2530000 202.2840000 103.3130000  90.9310000 200.9660000
 104.8296870  91.0640422 200.8980128 105.4358325  90.1634892 201.8222661
 101.9050000  91.1360000 202.2640000 102.8331500  91.6140745 200.2589185
 103.0044998  89.9028257 200.7529032 105.1457786  92.0769699 201.1690657
 105.1978866  90.8310970 199.8954997 105.0012520  90.3483657 202.6778065
 104.8070000  95.7850000  76.0550000 102.7530000  96.9320000  74.9390000
 102.8639214  98.1651885  75.8339740 101.9888707  95.8468749  75.6837234
 107.3688790  95.2545784  73.4027728 106.8022276  95.3740000  74.8280000
 105.3850000  95.3740000  74.8280000 105.5060000  94.4020000  74.8590000
 104.9811057  94.8251082  75.5552381 104.5873487  95.6344789  77.1137628
 103.8984599  98.5303217  75.7907677 102.6063039  97.8765211  76.8580313
 102.2064407  98.9481457  75.4582770 102.3959448  94.8730218  75.3907150
 100.9335256  95.9012270  75.4090774 102.1185857  96.0075068  76.7576063
 106.9779904  96.0674292  72.7799391 108.4621579  95.3113141  73.4247570
 107.1513253  96.3037113  75.2863684 107.1477374  94.5534533  75.4655830
 105.0806078  96.3055210  74.8280000 106.3560000  92.9490000  75.0000000
 102.8750000  98.5690000  83.7970000 103.3130000  98.2470000  82.4790000
 104.8296870  98.3800422  82.4110128 105.4358325  97.4794892  83.3352661
 101.9050000  98.4520000  83.7770000 102.8331500  98.9300745  81.7719185
 103.0044998  97.2188257  82.2659032 105.1457786  99.3929699  82.6820657
 105.1978866  98.1470970  81.4084997 105.0012520  97.6643657  84.1908065
 104.8070000  95.7850000  89.2200000 102.7530000  96.9320000  88.1040000
 102.8639214  98.1651885  88.9989740 101.9888707  95.8468749  88.8487234
 107.3688790  95.2545784  86.5677728 106.8022276  95.3740000  87.9930000
 105.3850000  95.3740000  87.9930000 105.5060000  94.4020000  88.0240000
 104.9811057  94.8251082  88.7202381 104.5873487  95.6344789  90.2787628
 103.8984599  98.5303217  88.9557677 102.6063039  97.8765211  90.0230313
 102.2064407  98.9481457  88.6232770 102.3959448  94.8730218  88.5557150
 100.9335256  95.9012270  88.5740774 102.1185857  96.0075068  89.9226063
 106.9779904  96.0674292  85.9449391 108.4621579  95.3113141  86.5897570
 107.1513253  96.3037113  88.4513684 107.1477374  94.5534533  88.6305830
 105.0806078  96.3055210  87.9930000 106.3560000  92.9490000  88.1650000
 102.8750000  98.5690000  96.9620000 103.3130000  98.2470000  95.6440000
 104.8296870  98.3800422  95.5760128 105.4358325  97.4794892  96.5002661
 101.9050000  98.4520000  96.9420000 102.8331500  98.9300745  94.9369185
 103.0044998  97.2188257  95.4309032 105.1457786  99.3929699  95.8470657
 105.1978866  98.1470970  94.5734997 105.0012520  97.6643657  97.3558065
 104.8070000  95.7850000 102.3850000 102.7530000  96.9320000 101.2690000
 102.8639214  98.1651885 102.1639740 101.9888707  95.8468749 102.0137234
 107.3688790  95.2545784  99.7327728 106.8022276  95.3740000 101.1580000
 105.3850000  95.3740000 101.1580000 105.5060000  94.4020000 101.1890000
 104.9811057  94.8251082 101.8852381 104.5873487  95.6344789 103.4437628
 103.8984599  98.5303217 102.1207677 102.6063039  97.8765211 103.1880313
 102.2064407  98.9481457 101.7882770 102.3959448  94.8730218 101.7207150
 100.9335256  95.9012270 101.7390774 102.1185857  96.0075068 103.0876063
 106.9779904  96.0674292  99.1099391 108.4621579  95.3113141  99.7547570
 107.1513253  96.3037113 101.6163684 107.1477374  94.5534533 101.7955830
 105.0806078  96.3055210 101.1580000 106.3560000  92.9490000 101.3300000
 102.8750000  98.5690000 110.1270000 103.3130000  98.2470000 108.8090000
 104.8296870  98.3800422 108.7410128 105.4358325  97.4794892 109.6652661
 101.9050000  98.4520000 110.1070000 102.8331500  98.9300745 108.1019185
 103.0044998  97.2188257 108.5959032 105.1457786  99.3929699 109.0120657
 105.1978866  98.1470970 107.7384997 105.0012520  97.6643657 110.5208065
 104.8070000  95.7850000 115.5510000 102.7530000  96.9320000 114.4350000
 102.8639214  98.1651885 115.3299740 101.9888707  95.8468749 115.1797234
 107.3688790  95.2545784 112.8987728 106.8022276  95.3740000 114.3240000
 105.3850000  95.3740000 114.3240000 105.5060000  94.4020000 114.3550000
 104.9811057  94.8251082 115.0512381 104.5873487  95.6344789 116.6097628
 103.8984599  98.5303217 115.2867677 102.6063039  97.8765211 116.3540313
 102.2064407  98.9481457 114.9542770 102.3959448  94.8730218 114.8867150
 100.9335256  95.9012270 114.9050774 102.1185857  96.0075068 116.2536063
 106.9779904  96.0674292 112.2759391 108.4621579  95.3113141 112.9207570
 107.1513253  96.3037113 114.7823684 107.1477374  94.5534533 114.9615830
 105.0806078  96.3055210 114.3240000 106.3560000  92.9490000 114.4960000
 102.8750000  98.5690000 123.2930000 103.3130000  98.2470000 121.9750000
 104.8296870  98.3800422 121.9070128 105.4358325  97.4794892 122.8312661
 101.9050000  98.4520000 123.2730000 102.8331500  98.9300745 121.2679185
 103.0044998  97.2188257 121.7619032 105.1457786  99.3929699 122.1780657
 105.1978866  98.1470970 120.9044997 105.0012520  97.6643657 123.6868065
 104.8070000  95.7850000 128.7160000 102.7530000  96.9320000 127.6000000
 102.8639214  98.1651885 128.4949740 101.9888707  95.8468749 128.3447234
 107.3688790  95.2545784 126.0637728 106.8022276  95.3740000 127.4890000
 105.3850000  95.3740000 127.4890000 105.5060000  94.4020000 127.5200000
 104.9811057  94.8251082 128.2162381 104.5873487  95.6344789 129.7747628
 103.8984599  98.5303217 128.4517677 102.6063039  97.8765211 129.5190313
 102.2064407  98.9481457 128.1192770 102.3959448  94.8730218 128.0517150
 100.9335256  95.9012270 128.0700774 102.1185857  96.0075068 129.4186063
 106.9779904  96.0674292 125.4409391 108.4621579  95.3113141 126.0857570
 107.1513253  96.3037113 127.9473684 107.1477374  94.5534533 128.1265830
 105.0806078  96.3055210 127.4890000 106.3560000  92.9490000 127.6610000
 102.8750000  98.5690000 136.4580000 103.3130000  98.2470000 135.1400000
 104.8296870  98.3800422 135.0720128 105.4358325  97.4794892 135.9962661
 101.9050000  98.4520000 136.4380000 102.8331500  98.9300745 134.4329185
 103.0044998  97.2188257 134.9269032 105.1457786  99.3929699 135.3430657
 105.1978866  98.1470970 134.0694997 105.0012520  97.6643657 136.8518065
 104.8070000  95.7850000 141.8810000 102.7530000  96.9320000 140.7650000
 102.8639214  98.1651885 141.6599740 101.9888707  95.8468749 141.5097234
 107.3688790  95.2545784 139.2287728 106.8022276  95.3740000 140.6540000
 105.3850000  95.3740000 140.6540000 105.5060000  94.4020000 140.6850000
 104.9811057  94.8251082 141.3812381 104.5873487  95.6344789 142.9397628
 103.8984599  98.5303217 141.6167677 102.6063039  97.8765211 142.6840313
 102.2064407  98.9481457 141.2842770 102.3959448  94.8730218 141.2167150
 100.9335256  95.9012270 141.2350774 102.1185857  96.0075068 142.5836063
 106.9779904  96.0674292 138.6059391 108.4621579  95.3113141 139.2507570
 107.1513253  96.3037113 141.1123684 107.1477374  94.5534533 141.2915830
 105.0806078  96.3055210 140.6540000 106.3560000  92.9490000 140.8260000
 102.8750000  98.5690000 149.6230000 103.3130000  98.2470000 148.3050000
 104.8296870  98.3800422 148.2370128 105.4358325  97.4794892 149.1612661
 101.9050000  98.4520000 149.6030000 102.8331500  98.9300745 147.5979185
 103.0044998  97.2188257 148.0919032 105.1457786  99.3929699 148.5080657
 105.1978866  98.1470970 147.2344997 105.0012520  97.6643657 150.0168065
 104.8070000  95.7850000 155.0460000 102.7530000  96.9320000 153.9300000
 102.8639214  98.1651885 154.8249740 101.9888707  95.8468749 154.6747234
 107.3688790  95.2545784 152.3937728 106.8022276  95.3740000 153.8190000
 105.3850000  95.3740000 153.8190000 105.5060000  94.4020000 153.8500000
 104.9811057  94.8251082 154.5462381 104.5873487  95.6344789 156.1047628
 103.8984599  98.5303217 154.7817677 102.6063039  97.8765211 155.8490313
 102.2064407  98.9481457 154.4492770 102.3959448  94.8730218 154.3817150
 100.9335256  95.9012270 154.4000774 102.1185857  96.0075068 155.7486063
 106.9779904  96.0674292 151.7709391 108.4621579  95.3113141 152.4157570
 107.1513253  96.3037113 154.2773684 107.1477374  94.5534533 154.4565830
 105.0806078  96.3055210 153.8190000 106.3560000  92.9490000 153.9910000
 102.8750000  98.5690000 162.7880000 103.3130000  98.2470000 161.4700000
 104.8296870  98.3800422 161.4020128 105.4358325  97.4794892 162.3262661
 101.9050000  98.4520000 162.7680000 102.8331500  98.9300745 160.7629185
 103.0044998  97.2188257 161.2569032 105.1457786  99.3929699 161.6730657
 105.1978866  98.1470970 160.3994997 105.0012520  97.6643657 163.1818065
 104.8070000  95.7850000 168.2110000 102.7530000  96.9320000 167.0950000
 102.8639214  98.1651885 167.9899740 101.9888707  95.8468749 167.8397234
 107.3688790  95.2545784 165.5587728 106.8022276  95.3740000 166.9840000
 105.3850000  95.3740000 166.9840000 105.5060000  94.4020000 167.0150000
 104.9811057  94.8251082 167.7112381 104.5873487  95.6344789 169.2697628
 103.8984599  98.5303217 167.9467677 102.6063039  97.8765211 169.0140313
 102.2064407  98.9481457 167.6142770 102.3959448  94.8730218 167.5467150
 100.9335256  95.9012270 167.5650774 102.1185857  96.0075068 168.9136063
 106.9779904  96.0674292 164.9359391 108.4621579  95.3113141 165.5807570
 107.1513253  96.3037113 167.4423684 107.1477374  94.5534533 167.6215830
 105.0806078  96.3055210 166.9840000 106.3560000  92.9490000 167.1560000
 102.8750000  98.5690000 175.9530000 103.3130000  98.2470000 174.6350000
 104.8296870  98.3800422 174.5670128 105.4358325  97.4794892 175.4912661
 101.9050000  98.4520000 175.9330000 102.8331500  98.9300745 173.9279185
 103.0044998  97.2188257 174.4219032 105.1457786  99.3929699 174.8380657
 105.1978866  98.1470970 173.5644997 105.0012520  97.6643657 176.3468065
 104.8070000  95.7850000 181.3770000 102.7530000  96.9320000 180.2610000
 102.8639214  98.1651885 181.1559740 101.9888707  95.8468749 181.0057234
 107.3688790  95.2545784 178.7247728 106.8022276  95.3740000 180.1500000
 105.3850000  95.3740000 180.1500000 105.5060000  94.4020000 180.1810000
 104.9811057  94.8251082 180.8772381 104.5873487  95.6344789 182.4357628
 103.8984599  98.5303217 181.1127677 102.6063039  97.8765211 182.1800313
 102.2064407  98.9481457 180.7802770 102.3959448  94.8730218 180.7127150
 100.9335256  95.9012270 180.7310774 102.1185857  96.0075068 182.0796063
 106.9779904  96.0674292 178.1019391 108.4621579  95.3113141 178.7467570
 107.1513253  96.3037113 180.6083684 107.1477374  94.5534533 180.7875830
 105.0806078  96.3055210 180.1500000 106.3560000  92.9490000 180.3220000
 102.8750000  98.5690000 189.1190000 103.3130000  98.2470000 187.8010000
 104.8296870  98.3800422 187.7330128 105.4358325  97.4794892 188.6572661
 101.9050000  98.4520000 189.0990000 102.8331500  98.9300745 187.0939185
 103.0044998  97.2188257 187.5879032 105.1457786  99.3929699 188.0040657
 105.1978866  98.1470970 186.7304997 105.0012520  97.6643657 189.5128065
 104.8070000  95.7850000 194.5420000 102.7530000  96.9320000 193.4260000
 102.8639214  98.1651885 194.3209740 101.9888707  95.8468749 194.1707234
 107.3688790  95.2545784 191.8897728 106.8022276  95.3740000 193.3150000
 105.3850000  95.3740000 193.3150000 105.5060000  94.4020000 193.3460000
 104.9811057  94.8251082 194.0422381 104.5873487  95.6344789 195.6007628
 103.8984599  98.5303217 194.2777677 102.6063039  97.8765211 195.3450313
 102.2064407  98.9481457 193.9452770 102.3959448  94.8730218 193.8777150
 100.9335256  95.9012270 193.8960774 102.1185857  96.0075068 195.2446063
 106.9779904  96.0674292 191.2669391 108.4621579  95.3113141 191.9117570
 107.1513253  96.3037113 193.7733684 107.1477374  94.5534533 193.9525830
 105.0806078  96.3055210 193.3150000 106.3560000  92.9490000 193.4870000
 102.8750000  98.5690000 202.2840000 103.3130000  98.2470000 200.9660000
 104.8296870  98.3800422 200.8980128 105.4358325  97.4794892 201.8222661
 101.9050000  98.4520000 202.2640000 102.8331500  98.9300745 200.2589185
 103.0044998  97.2188257 200.7529032 105.1457786  99.3929699 201.1690657
 105.1978866  98.1470970 199.8954997 105.0012520  97.6643657 202.6778065
 104.8070000 103.1020000  76.0550000 102.7530000 104.2490000  74.9390000
 102.8639214 105.4821885  75.8339740 101.9888707 103.1638749  75.6837234
 107.3688790 102.5715784  73.4027728 106.8022276 102.6910000  74.8280000
 105.3850000 102.6910000  74.8280000 105.5060000 101.7190000  74.8590000
 104.9811057 102.1421082  75.5552381 104.5873487 102.9514789  77.1137628
 103.8984599 105.8473217  75.7907677 102.6063039 105.1935211  76.8580313
 102.2064407 106.2651457  75.4582770 102.3959448 102.1900218  75.3907150
 100.9335256 103.2182270  75.4090774 102.1185857 103.3245068  76.7576063
 106.9779904 103.3844292  72.7799391 108.4621579 102.6283141  73.4247570
 107.1513253 103.6207113  75.2863684 107.1477374 101.8704533  75.4655830
 105.0806078 103.6225210  74.8280000 106.3560000 100.2660000  75.0000000
 102.8750000 105.8860000  83.7970000 103.3130000 105.5640000  82.4790000
 104.8296870 105.6970422  82.4110128 105.4358325 104.7964892  83.3352661
 101.9050000 105.7690000  83.7770000 102.8331500 106.2470745  81.7719185
 103.0044998 104.5358257  82.2659032 105.1457786 106.7099699  82.6820657
 105.1978866 105.4640970  81.4084997 105.0012520 104.9813657  84.1908065
 104.8070000 103.1020000  89.2200000 102.7530000 104.2490000  88.1040000
 102.8639214 105.4821885  88.9989740 101.9888707 103.1638749  88.8487234
 107.3688790 102.5715784  86.5677728 106.8022276 102.6910000  87.9930000
 105.3850000 102.6910000  87.9930000 105.5060000 101.7190000  88.0240000
 104.9811057 102.1421082  88.7202381 104.5873487 102.9514789  90.2787628
 103.8984599 105.8473217  88.9557677 102.6063039 105.1935211  90.0230313
 102.2064407 106.2651457  88.6232770 102.3959448 102.1900218  88.5557150
 100.9335256 103.2182270  88.5740774 102.1185857 103.3245068  89.9226063
 106.9779904 103.3844292  85.9449391 108.4621579 102.6283141  86.5897570
 107.1513253 103.6207113  88.4513684 107.1477374 101.8704533  88.6305830
 105.0806078 103.6225210  87.9930000 106.3560000 100.2660000  88.1650000
 102.8750000 105.8860000  96.9620000 103.3130000 105.5640000  95.6440000
 104.8296870 105.6970422  95.5760128 105.4358325 104.7964892  96.5002661
 101.9050000 105.7690000  96.9420000 102.8331500 106.2470745  94.9369185
 103.0044998 104.5358257  95.4309032 105.1457786 106.7099699  95.8470657
 105.1978866 105.4640970  94.5734997 105.0012520 104.9813657  97.3558065
 104.8070000 103.1020000 102.3850000 102.7530000 104.2490000 101.2690000
 102.8639214 105.4821885 102.1639740 101.9888707 103.1638749 102.0137234
 107.3688790 102.5715784  99.7327728 106.8022276 102.6910000 101.1580000
 105.3850000 102.6910000 101.1580000 105.5060000 101.7190000 101.1890000
 104.9811057 102.1421082 101.8852381 104.5873487 102.9514789 103.4437628
 103.8984599 105.8473217 102.1207677 102.6063039 105.1935211 103.1880313
 102.2064407 106.2651457 101.7882770 102.3959448 102.1900218 101.7207150
 100.9335256 103.2182270 101.7390774 102.1185857 103.3245068 103.0876063
 106.9779904 103.3844292  99.1099391 108.4621579 102.6283141  99.7547570
 107.1513253 103.6207113 101.6163684 107.1477374 101.8704533 101.7955830
 105.0806078 103.6225210 101.1580000 106.3560000 100.2660000 101.3300000
 102.8750000 105.8860000 110.1270000 103.3130000 105.5640000 108.8090000
 104.8296870 105.6970422 108.7410128 105.4358325 104.7964892 109.6652661
 101.9050000 105.7690000 110.1070000 102.8331500 106.2470745 108.1019185
 103.0044998 104.5358257 108.5959032 105.1457786 106.7099699 109.0120657
 105.1978866 105.4640970 107.7384997 105.0012520 104.9813657 110.5208065
 104.8070000 103.1020000 115.5510000 102.7530000 104.2490000 114.4350000
 102.8639214 105.4821885 115.3299740 101.9888707 103.1638749 115.1797234
 107.3688790 102.5715784 112.8987728 106.8022276 102.6910000 114.3240000
 105.3850000 102.6910000 114.3240000 105.5060000 101.7190000 114.3550000
 104.9811057 102.1421082 115.0512381 104.5873487 102.9514789 116.6097628
 103.8984599 105.8473217 115.2867677 102.6063039 105.1935211 116.3540313
 102.2064407 106.2651457 114.9542770 102.3959448 102.1900218 114.8867150
 100.9335256 103.2182270 114.9050774 102.1185857 103.3245068 116.2536063
 106.9779904 103.3844292 112.2759391 108.4621579 102.6283141 112.9207570
 107.1513253 103.6207113 114.7823684 107.1477374 101.8704533 114.9615830
 105.0806078 103.6225210 114.3240000 106.3560000 100.2660000 114.4960000
 102.8750000 105.8860000 123.2930000 103.3130000 105.5640000 121.9750000
 104.8296870 105.6970422 121.9070128 105.4358325 104.7964892 122.8312661
 101.9050000 105.7690000 123.2730000 102.8331500 106.2470745 121.2679185
 103.0044998 104.5358257 121.7619032 105.1457786 106.7099699 122.1780657
 105.1978866 105.4640970 120.9044997 105.0012520 104.9813657 123.6868065
 104.8070000 103.1020000 128.7160000 102.7530000 104.2490000 127.6000000
 102.8639214 105.4821885 128.4949740 101.9888707 103.1638749 128.3447234
 107.3688790 102.5715784 126.0637728 106.8022276 102.6910000 127.4890000
 105.3850000 102.6910000 127.4890000 105.5060000 101.7190000 127.5200000
 104.9811057 102.1421082 128.2162381 104.5873487 102.9514789 129.7747628
 103.8984599 105.8473217 128.4517677 102.6063039 105.1935211 129.5190313
 102.2064407 106.2651457 128.1192770 102.3959448 102.1900218 128.0517150
 100.9335256 103.2182270 128.0700774 102.1185857 103.3245068 129.4186063
 106.9779904 103.3844292 125.4409391 108.4621579 102.6283141 126.0857570
 107.1513253 103.6207113 127.9473684 107.1477374 101.8704533 128.1265830
 105.0806078 103.6225210 127.4890000 106.3560000 100.2660000 127.6610000
 102.8750000 105.8860000 136.4580000 103.3130000 105.5640000 135.1400000
 104.8296870 105.6970422 135.0720128 105.4358325 104.7964892 135.9962661
 101.9050000 105.7690000 136.4380000 102.8331500 106.2470745 134.4329185
 103.0044998 104.5358257 134.9269032 105.1457786 106.7099699 135.3430657
 105.1978866 105.4640970 134.0694997 105.0012520 104.9813657 136.8518065
 104.8070000 103.1020000 141.8810000 102.7530000 104.2490000 140.7650000
 102.8639214 105.4821885 141.6599740 101.9888707 103.1638749 141.5097234
 107.3688790 102.5715784 139.2287728 106.8022276 102.6910000 140.6540000
 105.3850000 102.6910000 140.6540000 105.5060000 101.7190000 140.6850000
 104.9811057 102.1421082 141.3812381 104.5873487 102.9514789 142.9397628
 103.8984599 105.8473217 141.6167677 102.6063039 105.1935211 142.6840313
 102.2064407 106.2651457 141.2842770 102.3959448 102.1900218 141.2167150
 100.9335256 103.2182270 141.2350774 102.1185857 103.3245068 142.5836063
 106.9779904 103.3844292 138.6059391 108.4621579 102.6283141 139.2507570
 107.1513253 103.6207113 141.1123684 107.1477374 101.8704533 141.2915830
 105.0806078 103.6225210 140.6540000 106.3560000 100.2660000 140.8260000
 102.8750000 105.8860000 149.6230000 103.3130000 105.5640000 148.3050000
 104.8296870 105.6970422 148.2370128 105.4358325 104.7964892 149.1612661
 101.9050000 105.7690000 149.6030000 102.8331500 106.2470745 147.5979185
 103.0044998 104.5358257 148.0919032 105.1457786 106.7099699 148.5080657
 105.1978866 105.4640970 147.2344997 105.0012520 104.9813657 150.0168065
 104.8070000 103.1020000 155.0460000 102.7530000 104.2490000 153.9300000
 102.8639214 105.4821885 154.8249740 101.9888707 103.1638749 154.6747234
 107.3688790 102.5715784 152.3937728 106.8022276 102.6910000 153.8190000
 105.3850000 102.6910000 153.8190000 105.5060000 101.7190000 153.8500000
 104.9811057 102.1421082 154.5462381 104.5873487 102.9514789 156.1047628
 103.8984599 105.8473217 154.7817677 102.6063039 105.1935211 155.8490313
 102.2064407 106.2651457 154.4492770 102.3959448 102.1900218 154.3817150
 100.9335256 103.2182270 154.4000774 102.1185857 103.3245068 155.7486063
 106.9779904 103.3844292 151.7709391 108.4621579 102.6283141 152.4157570
 107.1513253 103.6207113 154.2773684 107.1477374 101.8704533 154.4565830
 105.0806078 103.6225210 153.8190000 106.3560000 100.2660000 153.9910000
 102.8750000 105.8860000 162.7880000 103.3130000 105.5640000 161.4700000
 104.8296870 105.6970422 161.4020128 105.4358325 104.7964892 162.3262661
 101.9050000 105.7690000 162.7680000 102.8331500 106.2470745 160.7629185
 103.0044998 104.5358257 161.2569032 105.1457786 106.7099699 161.6730657
 105.1978866 105.4640970 160.3994997 105.0012520 104.9813657 163.1818065
 104.8070000 103.1020000 168.2110000 102.7530000 104.2490000 167.0950000
 102.8639214 105.4821885 167.9899740 101.9888707 103.1638749 167.8397234
 107.3688790 102.5715784 165.5587728 106.8022276 102.6910000 166.9840000
 105.3850000 102.6910000 166.9840000 105.5060000 101.7190000 167.0150000
 104.9811057 102.1421082 167.7112381 104.5873487 102.9514789 169.2697628
 103.8984599 105.8473217 167.9467677 102.6063039 105.1935211 169.0140313
 102.2064407 106.2651457 167.6142770 102.3959448 102.1900218 167.5467150
 100.9335256 103.2182270 167.5650774 102.1185857 103.3245068 168.9136063
 106.9779904 103.3844292 164.9359391 108.4621579 102.6283141 165.5807570
 107.1513253 103.6207113 167.4423684 107.1477374 101.8704533 167.6215830
 105.0806078 103.6225210 166.9840000 106.3560000 100.2660000 167.1560000
 102.8750000 105.8860000 175.9530000 103.3130000 105.5640000 174.6350000
 104.8296870 105.6970422 174.5670128 105.4358325 104.7964892 175.4912661
 101.9050000 105.7690000 175.9330000 102.8331500 106.2470745 173.9279185
 103.0044998 104.5358257 174.4219032 105.1457786 106.7099699 174.8380657
 105.1978866 105.4640970 173.5644997 105.0012520 104.9813657 176.3468065
 104.8070000 103.1020000 181.3770000 102.7530000 104.2490000 180.2610000
 102.8639214 105.4821885 181.1559740 101.9888707 103.1638749 181.0057234
 107.3688790 102.5715784 178.7247728 106.8022276 102.6910000 180.1500000
 105.3850000 102.6910000 180.1500000 105.5060000 101.7190000 180.1810000
 104.9811057 102.1421082 180.8772381 104.5873487 102.9514789 182.4357628
 103.8984599 105.8473217 181.1127677 102.6063039 105.1935211 182.1800313
 102.2064407 106.2651457 180.7802770 102.3959448 102.1900218 180.7127150
 100.9335256 103.2182270 180.7310774 102.1185857 103.3245068 182.0796063
 106.9779904 103.3844292 178.1019391 108.4621579 102.6283141 178.7467570
 107.1513253 103.6207113 180.6083684 107.1477374 101.8704533 180.7875830
 105.0806078 103.6225210 180.1500000 106.3560000 100.2660000 180.3220000
 102.8750000 105.8860000 189.1190000 103.3130000 105.5640000 187.8010000
 104.8296870 105.6970422 187.7330128 105.4358325 104.7964892 188.6572661
 101.9050000 105.7690000 189.0990000 102.8331500 106.2470745 187.0939185
 103.0044998 104.5358257 187.5879032 105.1457786 106.7099699 188.0040657
 105.1978866 105.4640970 186.7304997 105.0012520 104.9813657 189.5128065
 104.8070000 103.1020000 194.5420000 102.7530000 104.2490000 193.4260000
 102.8639214 105.4821885 194.3209740 101.9888707 103.1638749 194.1707234
 107.3688790 102.5715784 191.8897728 106.8022276 102.6910000 193.3150000
 105.3850000 102.6910000 193.3150000 105.5060000 101.7190000 193.3460000
 104.9811057 102.1421082 194.0422381 104.5873487 102.9514789 195.6007628
 103.8984599 105.8473217 194.2777677 102.6063039 105.1935211 195.3450313
 102.2064407 106.2651457 193.9452770 102.3959448 102.1900218 193.8777150
 100.9335256 103.2182270 193.8960774 102.1185857 103.3245068 195.2446063
 106.9779904 103.3844292 191.2669391 108.4621579 102.6283141 191.9117570
 107.1513253 103.6207113 193.7733684 107.1477374 101.8704533 193.9525830
 105.0806078 103.6225210 193.3150000 106.3560000 100.2660000 193.4870000
 102.8750000 105.8860000 202.2840000 103.3130000 105.5640000 200.9660000
 104.8296870 105.6970422 200.8980128 105.4358325 104.7964892 201.8222661
 101.9050000 105.7690000 202.2640000 102.8331500 106.2470745 200.2589185
 103.0044998 104.5358257 200.7529032 105.1457786 106.7099699 201.1690657
 105.1978866 105.4640970 199.8954997 105.0012520 104.9813657 202.6778065
 104.8070000 110.4180000  76.0550000 102.7530000 111.5650000  74.9390000
 102.8639214 112.7981885  75.8339740 101.9888707 110.4798749  75.6837234
 107.3688790 109.8875784  73.4027728 106.8022276 110.0070000  74.8280000
 105.3850000 110.0070000  74.8280000 105.5060000 109.0350000  74.8590000
 104.9811057 109.4581082  75.5552381 104.5873487 110.2674789  77.1137628
 103.8984599 113.1633217  75.7907677 102.6063039 112.5095211  76.8580313
 102.2064407 113.5811457  75.4582770 102.3959448 109.5060218  75.3907150
 100.9335256 110.5342270  75.4090774 102.1185857 110.6405068  76.7576063
 106.9779904 110.7004292  72.7799391 108.4621579 109.9443141  73.4247570
 107.1513253 110.9367113  75.2863684 107.1477374 109.1864533  75.4655830
 105.0806078 110.9385210  74.8280000 106.3560000 107.5820000  75.0000000
 102.8750000 113.2020000  83.7970000 103.3130000 112.8800000  82.4790000
 104.8296870 113.0130422  82.4110128 105.4358325 112.1124892  83.3352661
 101.9050000 113.0850000  83.7770000 102.8331500 113.5630745  81.7719185
 103.0044998 111.8518257  82.2659032 105.1457786 114.0259699  82.6820657
 105.1978866 112.7800970  81.4084997 105.0012520 112.2973657  84.1908065
 104.8070000 110.4180000  89.2200000 102.7530000 111.5650000  88.1040000
 102.8639214 112.7981885  88.9989740 101.9888707 110.4798749  88.8487234
 107.3688790 109.8875784  86.5677728 106.8022276 110.0070000  87.9930000
 105.3850000 110.0070000  87.9930000 105.5060000 109.0350000  88.0240000
 104.9811057 109.4581082  88.7202381 104.5873487 110.2674789  90.2787628
 103.8984599 113.1633217  88.9557677 102.6063039 112.5095211  90.0230313
 102.2064407 113.5811457  88.6232770 102.3959448 109.5060218  88.5557150
 100.9335256 110.5342270  88.5740774 102.1185857 110.6405068  89.9226063
 106.9779904 110.7004292  85.9449391 108.4621579 109.9443141  86.5897570
 107.1513253 110.9367113  88.4513684 107.1477374 109.1864533  88.6305830
 105.0806078 110.9385210  87.9930000 106.3560000 107.5820000  88.1650000
 102.8750000 113.2020000  96.9620000 103.3130000 112.8800000  95.6440000
 104.8296870 113.0130422  95.5760128 105.4358325 112.1124892  96.5002661
 101.9050000 113.0850000  96.9420000 102.8331500 113.5630745  94.9369185
 103.0044998 111.8518257  95.4309032 105.1457786 114.0259699  95.8470657
 105.1978866 112.7800970  94.5734997 105.0012520 112.2973657  97.3558065
 104.8070000 110.4180000 102.3850000 102.7530000 111.5650000 101.2690000
 102.8639214 112.7981885 102.1639740 101.9888707 110.4798749 102.0137234
 107.3688790 109.8875784  99.7327728 106.8022276 110.0070000 101.1580000
 105.3850000 110.0070000 101.1580000 105.5060000 109.0350000 101.1890000
 104.9811057 109.4581082 101.8852381 104.5873487 110.2674789 103.4437628
 103.8984599 113.1633217 102.1207677 102.6063039 112.5095211 103.1880313
 102.2064407 113.5811457 101.7882770 102.3959448 109.5060218 101.7207150
 100.9335256 110.5342270 101.7390774 102.1185857 110.6405068 103.0876063
 106.9779904 110.7004292  99.1099391 108.4621579 109.9443141  99.7547570
 107.1513253 110.9367113 101.6163684 107.1477374 109.1864533 101.7955830
 105.0806078 110.9385210 101.1580000 106.3560000 107.5820000 101.3300000
 102.8750000 113.2020000 110.1270000 103.3130000 112.8800000 108.8090000
 104.8296870 113.0130422 108.7410128 105.4358325 112.1124892 109.6652661
 101.9050000 113.0850000 110.1070000 102.8331500 113.5630745 108.1019185
 103.0044998 111.8518257 108.5959032 105.1457786 114.0259699 109.0120657
 105.1978866 112.7800970 107.7384997 105.0012520 112.2973657 110.5208065
 104.8070000 110.4180000 115.5510000 102.7530000 111.5650000 114.4350000
 102.8639214 112.7981885 115.3299740 101.9888707 110.4798749 115.1797234
 107.3688790 109.8875784 112.8987728 106.8022276 110.0070000 114.3240000
 105.3850000 110.0070000 114.3240000 105.5060000 109.0350000 114.3550000
 104.9811057 109.4581082 115.0512381 104.5873487 110.2674789 116.6097628
 103.8984599 113.1633217 115.2867677 102.6063039 112.5095211 116.3540313
 102.2064407 113.5811457 114.9542770 102.3959448 109.5060218 114.8867150
 100.9335256 110.5342270 114.9050774 102.1185857 110.6405068 116.2536063
 106.9779904 110.7004292 112.2759391 108.4621579 109.9443141 112.9207570
 107.1513253 110.9367113 114.7823684 107.1477374 109.1864533 114.9615830
 105.0806078 110.9385210 114.3240000 106.3560000 107.5820000 114.4960000
 102.8750000 113.2020000 123.2930000 103.3130000 112.8800000 121.9750000
 104.8296870 113.0130422 121.9070128 105.4358325 112.1124892 122.8312661
 101.9050000 113.0850000 123.2730000 102.8331500 113.5630745 121.2679185
 103.0044998 111.8518257 121.7619032 105.1457786 114.0259699 122.1780657
 105.1978866 112.7800970 120.9044997 105.0012520 112.2973657 123.6868065
 104.8070000 110.4180000 128.7160000 102.7530000 111.5650000 127.6000000
 102.8639214 112.7981885 128.4949740 101.9888707 110.4798749 128.3447234
 107.3688790 109.8875784 126.0637728 106.8022276 110.0070000 127.4890000
 105.3850000 110.0070000 127.4890000 105.5060000 109.0350000 127.5200000
 104.9811057 109.4581082 128.2162381 104.5873487 110.2674789 129.7747628
 103.8984599 113.1633217 128.4517677 102.6063039 112.5095211 129.5190313
 102.2064407 113.5811457 128.1192770 102.3959448 109.5060218 128.0517150
 100.9335256 110.5342270 128.0700774 102.1185857 110.6405068 129.4186063
 106.9779904 110.7004292 125.4409391 108.4621579 109.9443141 126.0857570
 107.1513253 110.9367113 127.9473684 107.1477374 109.1864533 128.1265830
 105.0806078 110.9385210 127.4890000 106.3560000 107.5820000 127.6610000
 102.8750000 113.2020000 136.4580000 103.3130000 112.8800000 135.1400000
 104.8296870 113.0130422 135.0720128 105.4358325 112.1124892 135.9962661
 101.9050000 113.0850000 136.4380000 102.8331500 113.5630745 134.4329185
 103.0044998 111.8518257 134.9269032 105.1457786 114.0259699 135.3430657
 105.1978866 112.7800970 134.0694997 105.0012520 112.2973657 136.8518065
 104.8070000 110.4180000 141.8810000 102.7530000 111.5650000 140.7650000
 102.8639214 112.7981885 141.6599740 101.9888707 110.4798749 141.5097234
 107.3688790 109.8875784 139.2287728 106.8022276 110.0070000 140.6540000
 105.3850000 110.0070000 140.6540000 105.5060000 109.0350000 140.6850000
 104.9811057 109.4581082 141.3812381 104.5873487 110.2674789 142.9397628
 103.8984599 113.1633217 141.6167677 102.6063039 112.5095211 142.6840313
 102.2064407 113.5811457 141.2842770 102.3959448 109.5060218 141.2167150
 100.9335256 110.5342270 141.2350774 102.1185857 110.6405068 142.5836063
 106.9779904 110.7004292 138.6059391 108.4621579 109.9443141 139.2507570
 107.1513253 110.9367113 141.1123684 107.1477374 109.1864533 141.2915830
 105.0806078 110.9385210 140.6540000 106.3560000 107.5820000 140.8260000
 102.8750000 113.2020000 149.6230000 103.3130000 112.8800000 148.3050000
 104.8296870 113.0130422 148.2370128 105.4358325 112.1124892 149.1612661
 101.9050000 113.0850000 149.6030000 102.8331500 113.5630745 147.5979185
 103.0044998 111.8518257 148.0919032 105.1457786 114.0259699 148.5080657
 105.1978866 112.7800970 147.2344997 105.0012520 112.2973657 150.0168065
 104.8070000 110.4180000 155.0460000 102.7530000 111.5650000 153.9300000
 102.8639214 112.7981885 154.8249740 101.9888707 110.4798749 154.6747234
 107.3688790 109.8875784 152.3937728 106.8022276 110.0070000 153.8190000
 105.3850000 110.0070000 153.8190000 105.5060000 109.0350000 153.8500000
 104.9811057 109.4581082 154.5462381 104.5873487 110.2674789 156.1047628
 103.8984599 113.1633217 154.7817677 102.6063039 112.5095211 155.8490313
 102.2064407 113.5811457 154.4492770 102.3959448 109.5060218 154.3817150
 100.9335256 110.5342270 154.4000774 102.1185857 110.6405068 155.7486063
 106.9779904 110.7004292 151.7709391 108.4621579 109.9443141 152.4157570
 107.1513253 110.9367113 154.2773684 107.1477374 109.1864533 154.4565830
 105.0806078 110.9385210 153.8190000 106.3560000 107.5820000 153.9910000
 102.8750000 113.2020000 162.7880000 103.3130000 112.8800000 161.4700000
 104.8296870 113.0130422 161.4020128 105.4358325 112.1124892 162.3262661
 101.9050000 113.0850000 162.7680000 102.8331500 113.5630745 160.7629185
 103.0044998 111.8518257 161.2569032 105.1457786 114.0259699 161.6730657
 105.1978866 112.7800970 160.3994997 105.0012520 112.2973657 163.1818065
 104.8070000 110.4180000 168.2110000 102.7530000 111.5650000 167.0950000
 102.8639214 112.7981885 167.9899740 101.9888707 110.4798749 167.8397234
 107.3688790 109.8875784 165.5587728 106.8022276 110.0070000 166.9840000
 105.3850000 110.0070000 166.9840000 105.5060000 109.0350000 167.0150000
 104.9811057 109.4581082 167.7112381 104.5873487 110.2674789 169.2697628
 103.8984599 113.1633217 167.9467677 102.6063039 112.5095211 169.0140313
 102.2064407 113.5811457 167.6142770 102.3959448 109.5060218 167.5467150
 100.9335256 110.5342270 167.5650774 102.1185857 110.6405068 168.9136063
 106.9779904 110.7004292 164.9359391 108.4621579 109.9443141 165.5807570
 107.1513253 110.9367113 167.4423684 107.1477374 109.1864533 167.6215830
 105.0806078 110.9385210 166.9840000 106.3560000 107.5820000 167.1560000
 102.8750000 113.2020000 175.9530000 103.3130000 112.8800000 174.6350000
 104.8296870 113.0130422 174.5670128 105.4358325 112.1124892 175.4912661
 101.9050000 113.0850000 175.9330000 102.8331500 113.5630745 173.9279185
 103.0044998 111.8518257 174.4219032 105.1457786 114.0259699 174.8380657
 105.1978866 112.7800970 173.5644997 105.0012520 112.2973657 176.3468065
 104.8070000 110.4180000 181.3770000 102.7530000 111.5650000 180.2610000
 102.8639214 112.7981885 181.1559740 101.9888707 110.4798749 181.0057234
 107.3688790 109.8875784 178.7247728 106.8022276 110.0070000 180.1500000
 105.3850000 110.0070000 180.1500000 105.5060000 109.0350000 180.1810000
 104.9811057 109.4581082 180.8772381 104.5873487 110.2674789 182.4357628
 103.8984599 113.1633217 181.1127677 102.6063039 112.5095211 182.1800313
 102.2064407 113.5811457 180.7802770 102.3959448 109.5060218 180.7127150
 100.9335256 110.5342270 180.7310774 102.1185857 110.6405068 182.0796063
 106.9779904 110.7004292 178.1019391 108.4621579 109.9443141 178.7467570
 107.1513253 110.9367113 180.6083684 107.1477374 109.1864533 180.7875830
 105.0806078 110.9385210 180.1500000 106.3560000 107.5820000 180.3220000
 102.8750000 113.2020000 189.1190000 103.3130000 112.8800000 187.8010000
 104.8296870 113.0130422 187.7330128 105.4358325 112.1124892 188.6572661
 101.9050000 113.0850000 189.0990000 102.8331500 113.5630745 187.0939185
 103.0044998 111.8518257 187.5879032 105.1457786 114.0259699 188.0040657
 105.1978866 112.7800970 186.7304997 105.0012520 112.2973657 189.5128065
 104.8070000 110.4180000 194.5420000 102.7530000 111.5650000 193.4260000
 102.8639214 112.7981885 194.3209740 101.9888707 110.4798749 194.1707234
 107.3688790 109.8875784 191.8897728 106.8022276 110.0070000 193.3150000
 105.3850000 110.0070000 193.3150000 105.5060000 109.0350000 193.3460000
 104.9811057 109.4581082 194.0422381 104.5873487 110.2674789 195.6007628
 103.8984599 113.1633217 194.2777677 102.6063039 112.5095211 195.3450313
 102.2064407 113.5811457 193.9452770 102.3959448 109.5060218 193.8777150
 100.9335256 110.5342270 193.8960774 102.1185857 110.6405068 195.2446063
 106.9779904 110.7004292 191.2669391 108.4621579 109.9443141 191.9117570
 107.1513253 110.9367113 193.7733684 107.1477374 109.1864533 193.9525830
 105.0806078 110.9385210 193.3150000 106.3560000 107.5820000 193.4870000
 102.8750000 113.2020000 202.2840000 103.3130000 112.8800000 200.9660000
 104.8296870 113.0130422 200.8980128 105.4358325 112.1124892 201.8222661
 101.9050000 113.0850000 202.2640000 102.8331500 113.5630745 200.2589185
 103.0044998 111.8518257 200.7529032 105.1457786 114.0259699 201.1690657
 105.1978866 112.7800970 199.8954997 105.0012520 112.2973657 202.6778065
 104.8070000 117.7340000  76.0550000 102.7530000 118.8810000  74.9390000
 102.8639214 120.1141885  75.8339740 101.9888707 117.7958749  75.6837234
 107.3688790 117.2035784  73.4027728 106.8022276 117.3230000  74.8280000
 105.3850000 117.3230000  74.8280000 105.5060000 116.3510000  74.8590000
 104.9811057 116.7741082  75.5552381 104.5873487 117.5834789  77.1137628
 103.8984599 120.4793217  75.7907677 102.6063039 119.8255211  76.8580313
 102.2064407 120.8971457  75.4582770 102.3959448 116.8220218  75.3907150
 100.9335256 117.8502270  75.4090774 102.1185857 117.9565068  76.7576063
 106.9779904 118.0164292  72.7799391 108.4621579 117.2603141  73.4247570
 107.1513253 118.2527113  75.2863684 107.1477374 116.5024533  75.4655830
 105.0806078 118.2545210  74.8280000 106.3560000 114.8980000  75.0000000
 102.8750000 120.5180000  83.7970000 103.3130000 120.1960000  82.4790000
 104.8296870 120.3290422  82.4110128 105.4358325 119.4284892  83.3352661
 101.9050000 120.4010000  83.7770000 102.8331500 120.8790745  81.7719185
 103.0044998 119.1678257  82.2659032 105.1457786 121.3419699  82.6820657
 105.1978866 120.0960970  81.4084997 105.0012520 119.6133657  84.1908065
 104.8070000 117.7340000  89.2200000 102.7530000 118.8810000  88.1040000
 102.8639214 120.1141885  88.9989740 101.9888707 117.7958749  88.8487234
 107.3688790 117.2035784  86.5677728 106.8022276 117.3230000  87.9930000
 105.3850000 117.3230000  87.9930000 105.5060000 116.3510000  88.0240000
 104.9811057 116.7741082  88.7202381 104.5873487 117.5834789  90.2787628
 103.8984599 120.4793217  88.9557677 102.6063039 119.8255211  90.0230313
 102.2064407 120.8971457  88.6232770 102.3959448 116.8220218  88.5557150
 100.9335256 117.8502270  88.5740774 102.1185857 117.9565068  89.9226063
 106.9779904 118.0164292  85.9449391 108.4621579 117.2603141  86.5897570
 107.1513253 118.2527113  88.4513684 107.1477374 116.5024533  88.6305830
 105.0806078 118.2545210  87.9930000 106.3560000 114.8980000  88.1650000
 102.8750000 120.5180000  96.9620000 103.3130000 120.1960000  95.6440000
 104.8296870 120.3290422  95.5760128 105.4358325 119.4284892  96.5002661
 101.9050000 120.4010000  96.9420000 102.8331500 120.8790745  94.9369185
 103.0044998 119.1678257  95.4309032 105.1457786 121.3419699  95.8470657
 105.1978866 120.0960970  94.5734997 105.0012520 119.6133657  97.3558065
 104.8070000 117.7340000 102.3850000 102.7530000 118.8810000 101.2690000
 102.8639214 120.1141885 102.1639740 101.9888707 117.7958749 102.0137234
 107.3688790 117.2035784  99.7327728 106.8022276 117.3230000 101.1580000
 105.3850000 117.3230000 101.1580000 105.5060000 116.3510000 101.1890000
 104.9811057 116.7741082 101.8852381 104.5873487 117.5834789 103.4437628
 103.8984599 120.4793217 102.1207677 102.6063039 119.8255211 103.1880313
 102.2064407 120.8971457 101.7882770 102.3959448 116.8220218 101.7207150
 100.9335256 117.8502270 101.7390774 102.1185857 117.9565068 103.0876063
 106.9779904 118.0164292  99.1099391 108.4621579 117.2603141  99.7547570
 107.1513253 118.2527113 101.6163684 107.1477374 116.5024533 101.7955830
 105.0806078 118.2545210 101.1580000 106.3560000 114.8980000 101.3300000
 102.8750000 120.5180000 110.1270000 103.3130000 120.1960000 108.8090000
 104.8296870 120.3290422 108.7410128 105.4358325 119.4284892 109.6652661
 101.9050000 120.4010000 110.1070000 102.8331500 120.8790745 108.1019185
 103.0044998 119.1678257 108.5959032 105.1457786 121.3419699 109.0120657
 105.1978866 120.0960970 107.7384997 105.0012520 119.6133657 110.5208065
 104.8070000 117.7340000 115.5510000 102.7530000 118.8810000 114.4350000
 102.8639214 120.1141885 115.3299740 101.9888707 117.7958749 115.1797234
 107.3688790 117.2035784 112.8987728 106.8022276 117.3230000 114.3240000
 105.3850000 117.3230000 114.3240000 105.5060000 116.3510000 114.3550000
 104.9811057 116.7741082 115.0512381 104.5873487 117.5834789 116.6097628
 103.8984599 120.4793217 115.2867677 102.6063039 119.8255211 116.3540313
 102.2064407 120.8971457 114.9542770 102.3959448 116.8220218 114.8867150
 100.9335256 117.8502270 114.9050774 102.1185857 117.9565068 116.2536063
 106.9779904 118.0164292 112.2759391 108.4621579 117.2603141 112.9207570
 107.1513253 118.2527113 114.7823684 107.1477374 116.5024533 114.9615830
 105.0806078 118.2545210 114.3240000 106.3560000 114.8980000 114.4960000
 102.8750000 120.5180000 123.2930000 103.3130000 120.1960000 121.9750000
 104.8296870 120.3290422 121.9070128 105.4358325 119.4284892 122.8312661
 101.9050000 120.4010000 123.2730000 102.8331500 120.8790745 121.2679185
 103.0044998 119.1678257 121.7619032 105.1457786 121.3419699 122.1780657
 105.1978866 120.0960970 120.9044997 105.0012520 119.6133657 123.6868065
 104.8070000 117.7340000 128.7160000 102.7530000 118.8810000 127.6000000
 102.8639214 120.1141885 128.4949740 101.9888707 117.7958749 128.3447234
 107.3688790 117.2035784 126.0637728 106.8022276 117.3230000 127.4890000
 105.3850000 117.3230000 127.4890000 105.5060000 116.3510000 127.5200000
 104.9811057 116.7741082 128.2162381 104.5873487 117.5834789 129.7747628
 103.8984599 120.4793217 128.4517677 102.6063039 119.8255211 129.5190313
 102.2064407 120.8971457 128.1192770 102.3959448 116.8220218 128.0517150
 100.9335256 117.8502270 128.0700774 102.1185857 117.9565068 129.4186063
 106.9779904 118.0164292 125.4409391 108.4621579 117.2603141 126.0857570
 107.1513253 118.2527113 127.9473684 107.1477374 116.5024533 128.1265830
 105.0806078 118.2545210 127.4890000 106.3560000 114.8980000 127.6610000
 102.8750000 120.5180000 136.4580000 103.3130000 120.1960000 135.1400000
 104.8296870 120.3290422 135.0720128 105.4358325 119.4284892 135.9962661
 101.9050000 120.4010000 136.4380000 102.8331500 120.8790745 134.4329185
 103.0044998 119.1678257 134.9269032 105.1457786 121.3419699 135.3430657
 105.1978866 120.0960970 134.0694997 105.0012520 119.6133657 136.8518065
 104.8070000 117.7340000 141.8810000 102.7530000 118.8810000 140.7650000
 102.8639214 120.1141885 141.6599740 101.9888707 117.7958749 141.5097234
 107.3688790 117.2035784 139.2287728 106.8022276 117.3230000 140.6540000
 105.3850000 117.3230000 140.6540000 105.5060000 116.3510000 140.6850000
 104.9811057 116.7741082 141.3812381 104.5873487 117.5834789 142.9397628
 103.8984599 120.4793217 141.6167677 102.6063039 119.8255211 142.6840313
 102.2064407 120.8971457 141.2842770 102.3959448 116.8220218 141.2167150
 100.9335256 117.8502270 141.2350774 102.1185857 117.9565068 142.5836063
 106.9779904 118.0164292 138.6059391 108.4621579 117.2603141 139.2507570
 107.1513253 118.2527113 141.1123684 107.1477374 116.5024533 141.2915830
 105.0806078 118.2545210 140.6540000 106.3560000 114.8980000 140.8260000
 102.8750000 120.5180000 149.6230000 103.3130000 120.1960000 148.3050000
 104.8296870 120.3290422 148.2370128 105.4358325 119.4284892 149.1612661
 101.9050000 120.4010000 149.6030000 102.8331500 120.8790745 147.5979185
 103.0044998 119.1678257 148.0919032 105.1457786 121.3419699 148.5080657
 105.1978866 120.0960970 147.2344997 105.0012520 119.6133657 150.0168065
 104.8070000 117.7340000 155.0460000 102.7530000 118.8810000 153.9300000
 102.8639214 120.1141885 154.8249740 101.9888707 117.7958749 154.6747234
 107.3688790 117.2035784 152.3937728 106.8022276 117.3230000 153.8190000
 105.3850000 117.3230000 153.8190000 105.5060000 116.3510000 153.8500000
 104.9811057 116.7741082 154.5462381 104.5873487 117.5834789 156.1047628
 103.8984599 120.4793217 154.7817677 102.6063039 119.8255211 155.8490313
 102.2064407 120.8971457 154.4492770 102.3959448 116.8220218 154.3817150
 100.9335256 117.8502270 154.4000774 102.1185857 117.9565068 155.7486063
 106.9779904 118.0164292 151.7709391 108.4621579 117.2603141 152.4157570
 107.1513253 118.2527113 154.2773684 107.1477374 116.5024533 154.4565830
 105.0806078 118.2545210 153.8190000 106.3560000 114.8980000 153.9910000
 102.8750000 120.5180000 162.7880000 103.3130000 120.1960000 161.4700000
 104.8296870 120.3290422 161.4020128 105.4358325 119.4284892 162.3262661
 101.9050000 120.4010000 162.7680000 102.8331500 120.8790745 160.7629185
 103.0044998 119.1678257 161.2569032 105.1457786 121.3419699 161.6730657
 105.1978866 120.0960970 160.3994997 105.0012520 119.6133657 163.1818065
 104.8070000 117.7340000 168.2110000 102.7530000 118.8810000 167.0950000
 102.8639214 120.1141885 167.9899740 101.9888707 117.7958749 167.8397234
 107.3688790 117.2035784 165.5587728 106.8022276 117.3230000 166.9840000
 105.3850000 117.3230000 166.9840000 105.5060000 116.3510000 167.0150000
 104.9811057 116.7741082 167.7112381 104.5873487 117.5834789 169.2697628
 103.8984599 120.4793217 167.9467677 102.6063039 119.8255211 169.0140313
 102.2064407 120.8971457 167.6142770 102.3959448 116.8220218 167.5467150
 100.9335256 117.8502270 167.5650774 102.1185857 117.9565068 168.9136063
 106.9779904 118.0164292 164.9359391 108.4621579 117.2603141 165.5807570
 107.1513253 118.2527113 167.4423684 107.1477374 116.5024533 167.6215830
 105.0806078 118.2545210 166.9840000 106.3560000 114.8980000 167.1560000
 102.8750000 120.5180000 175.9530000 103.3130000 120.1960000 174.6350000
 104.8296870 120.3290422 174.5670128 105.4358325 119.4284892 175.4912661
 101.9050000 120.4010000 175.9330000 102.8331500 120.8790745 173.9279185
 103.0044998 119.1678257 174.4219032 105.1457786 121.3419699 174.8380657
 105.1978866 120.0960970 173.5644997 105.0012520 119.6133657 176.3468065
 104.8070000 117.7340000 181.3770000 102.7530000 118.8810000 180.2610000
 102.8639214 120.1141885 181.1559740 101.9888707 117.7958749 181.0057234
 107.3688790 117.2035784 178.7247728 106.8022276 117.3230000 180.1500000
 105.3850000 117.3230000 180.1500000 105.5060000 116.3510000 180.1810000
 104.9811057 116.7741082 180.8772381 104.5873487 117.5834789 182.4357628
 103.8984599 120.4793217 181.1127677 102.6063039 119.8255211 182.1800313
 102.2064407 120.8971457 180.7802770 102.3959448 116.8220218 180.7127150
 100.9335256 117.8502270 180.7310774 102.1185857 117.9565068 182.0796063
 106.9779904 118.0164292 178.1019391 108.4621579 117.2603141 178.7467570
 107.1513253 118.2527113 180.6083684 107.1477374 116.5024533 180.7875830
 105.0806078 118.2545210 180.1500000 106.3560000 114.8980000 180.3220000
 102.8750000 120.5180000 189.1190000 103.3130000 120.1960000 187.8010000
 104.8296870 120.3290422 187.7330128 105.4358325 119.4284892 188.6572661
 101.9050000 120.4010000 189.0990000 102.8331500 120.8790745 187.0939185
 103.0044998 119.1678257 187.5879032 105.1457786 121.3419699 188.0040657
 105.1978866 120.0960970 186.7304997 105.0012520 119.6133657 189.5128065
 104.8070000 117.7340000 194.5420000 102.7530000 118.8810000 193.4260000
 102.8639214 120.1141885 194.3209740 101.9888707 117.7958749 194.1707234
 107.3688790 117.2035784 191.8897728 106.8022276 117.3230000 193.3150000
 105.3850000 117.3230000 193.3150000 105.5060000 116.3510000 193.3460000
 104.9811057 116.7741082 194.0422381 104.5873487 117.5834789 195.6007628
 103.8984599 120.4793217 194.2777677 102.6063039 119.8255211 195.3450313
 102.2064407 120.8971457 193.9452770 102.3959448 116.8220218 193.8777150
 100.9335256 117.8502270 193.8960774 102.1185857 117.9565068 195.2446063
 106.9779904 118.0164292 191.2669391 108.4621579 117.2603141 191.9117570
 107.1513253 118.2527113 193.7733684 107.1477374 116.5024533 193.9525830
 105.0806078 118.2545210 193.3150000 106.3560000 114.8980000 193.4870000
 102.8750000 120.5180000 202.2840000 103.3130000 120.1960000 200.9660000
 104.8296870 120.3290422 200.8980128 105.4358325 119.4284892 201.8222661
 101.9050000 120.4010000 202.2640000 102.8331500 120.8790745 200.2589185
 103.0044998 119.1678257 200.7529032 105.1457786 121.3419699 201.1690657
 105.1978866 120.0960970 199.8954997 105.0012520 119.6133657 202.6778065
 104.8070000 125.0510000  76.0550000 102.7530000 126.1980000  74.9390000
 102.8639214 127.4311885  75.8339740 101.9888707 125.1128749  75.6837234
 107.3688790 124.5205784  73.4027728 106.8022276 124.6400000  74.8280000
 105.3850000 124.6400000  74.8280000 105.5060000 123.6680000  74.8590000
 104.9811057 124.0911082  75.5552381 104.5873487 124.9004789  77.1137628
 103.8984599 127.7963217  75.7907677 102.6063039 127.1425211  76.8580313
 102.2064407 128.2141457  75.4582770 102.3959448 124.1390218  75.3907150
 100.9335256 125.1672270  75.4090774 102.1185857 125.2735068  76.7576063
 106.9779904 125.3334292  72.7799391 108.4621579 124.5773141  73.4247570
 107.1513253 125.5697113  75.2863684 107.1477374 123.8194533  75.4655830
 105.0806078 125.5715210  74.8280000 106.3560000 122.2150000  75.0000000
 102.8750000 127.8350000  83.7970000 103.3130000 127.5130000  82.4790000
 104.8296870 127.6460422  82.4110128 105.4358325 126.7454892  83.3352661
 101.9050000 127.7180000  83.7770000 102.8331500 128.1960745  81.7719185
 103.0044998 126.4848257  82.2659032 105.1457786 128.6589699  82.6820657
 105.1978866 127.4130970  81.4084997 105.0012520 126.9303657  84.1908065
 104.8070000 125.0510000  89.2200000 102.7530000 126.1980000  88.1040000
 102.8639214 127.4311885  88.9989740 101.9888707 125.1128749  88.8487234
 107.3688790 124.5205784  86.5677728 106.8022276 124.6400000  87.9930000
 105.3850000 124.6400000  87.9930000 105.5060000 123.6680000  88.0240000
 104.9811057 124.0911082  88.7202381 104.5873487 124.9004789  90.2787628
 103.8984599 127.7963217  88.9557677 102.6063039 127.1425211  90.0230313
 102.2064407 128.2141457  88.6232770 102.3959448 124.1390218  88.5557150
 100.9335256 125.1672270  88.5740774 102.1185857 125.2735068  89.9226063
 106.9779904 125.3334292  85.9449391 108.4621579 124.5773141  86.5897570
 107.1513253 125.5697113  88.4513684 107.1477374 123.8194533  88.6305830
 105.0806078 125.5715210  87.9930000 106.3560000 122.2150000  88.1650000
 102.8750000 127.8350000  96.9620000 103.3130000 127.5130000  95.6440000
 104.8296870 127.6460422  95.5760128 105.4358325 126.7454892  96.5002661
 101.9050000 127.7180000  96.9420000 102.8331500 128.1960745  94.9369185
 103.0044998 126.4848257  95.4309032 105.1457786 128.6589699  95.8470657
 105.1978866 127.4130970  94.5734997 105.0012520 126.9303657  97.3558065
 104.8070000 125.0510000 102.3850000 102.7530000 126.1980000 101.2690000
 102.8639214 127.4311885 102.1639740 101.9888707 125.1128749 102.0137234
 107.3688790 124.5205784  99.7327728 106.8022276 124.6400000 101.1580000
 105.3850000 124.6400000 101.1580000 105.5060000 123.6680000 101.1890000
 104.9811057 124.0911082 101.8852381 104.5873487 124.9004789 103.4437628
 103.8984599 127.7963217 102.1207677 102.6063039 127.1425211 103.1880313
 102.2064407 128.2141457 101.7882770 102.3959448 124.1390218 101.7207150
 100.9335256 125.1672270 101.7390774 102.1185857 125.2735068 103.0876063
 106.9779904 125.3334292  99.1099391 108.4621579 124.5773141  99.7547570
 107.1513253 125.5697113 101.6163684 107.1477374 123.8194533 101.7955830
 105.0806078 125.5715210 101.1580000 106.3560000 122.2150000 101.3300000
 102.8750000 127.8350000 110.1270000 103.3130000 127.5130000 108.8090000
 104.8296870 127.6460422 108.7410128 105.4358325 126.7454892 109.6652661
 101.9050000 127.7180000 110.1070000 102.8331500 128.1960745 108.1019185
 103.0044998 126.4848257 108.5959032 105.1457786 128.6589699 109.0120657
 105.1978866 127.4130970 107.7384997 105.0012520 126.9303657 110.5208065
 104.8070000 125.0510000 115.5510000 102.7530000 126.1980000 114.4350000
 102.8639214 127.4311885 115.3299740 101.9888707 125.1128749 115.1797234
 107.3688790 124.5205784 112.8987728 106.8022276 124.6400000 114.3240000
 105.3850000 124.6400000 114.3240000 105.5060000 123.6680000 114.3550000
 104.9811057 124.0911082 115.0512381 104.5873487 124.9004789 116.6097628
 103.8984599 127.7963217 115.2867677 102.6063039 127.1425211 116.3540313
 102.2064407 128.2141457 114.9542770 102.3959448 124.1390218 114.8867150
 100.9335256 125.1672270 114.9050774 102.1185857 125.2735068 116.2536063
 106.9779904 125.3334292 112.2759391 108.4621579 124.5773141 112.9207570
 107.1513253 125.5697113 114.7823684 107.1477374 123.8194533 114.9615830
 105.0806078 125.5715210 114.3240000 106.3560000 122.2150000 114.4960000
 102.8750000 127.8350000 123.2930000 103.3130000 127.5130000 121.9750000
 104.8296870 127.6460422 121.9070128 105.4358325 126.7454892 122.8312661
 101.9050000 127.7180000 123.2730000 102.8331500 128.1960745 121.2679185
 103.0044998 126.4848257 121.7619032 105.1457786 128.6589699 122.1780657
 105.1978866 127.4130970 120.9044997 105.0012520 126.9303657 123.6868065
 104.8070000 125.0510000 128.7160000 102.7530000 126.1980000 127.6000000
 102.8639214 127.4311885 128.4949740 101.9888707 125.1128749 128.3447234
 107.3688790 124.5205784 126.0637728 106.8022276 124.6400000 127.4890000
 105.3850000 124.6400000 127.4890000 105.5060000 123.6680000 127.5200000
 104.9811057 124.0911082 128.2162381 104.5873487 124.9004789 129.7747628
 103.8984599 127.7963217 128.4517677 102.6063039 127.1425211 129.5190313
 102.2064407 128.2141457 128.1192770 102.3959448 124.1390218 128.0517150
 100.9335256 125.1672270 128.0700774 102.1185857 125.2735068 129.4186063
 106.9779904 125.3334292 125.4409391 108.4621579 124.5773141 126.0857570
 107.1513253 125.5697113 127.9473684 107.1477374 123.8194533 128.1265830
 105.0806078 125.5715210 127.4890000 106.3560000 122.2150000 127.6610000
 102.8750000 127.8350000 136.4580000 103.3130000 127.5130000 135.1400000
 104.8296870 127.6460422 135.0720128 105.4358325 126.7454892 135.9962661
 101.9050000 127.7180000 136.4380000 102.8331500 128.1960745 134.4329185
 103.0044998 126.4848257 134.9269032 105.1457786 128.6589699 135.3430657
 105.1978866 127.4130970 134.0694997 105.0012520 126.9303657 136.8518065
 104.8070000 125.0510000 141.8810000 102.7530000 126.1980000 140.7650000
 102.8639214 127.4311885 141.6599740 101.9888707 125.1128749 141.5097234
 107.3688790 124.5205784 139.2287728 106.8022276 124.6400000 140.6540000
 105.3850000 124.6400000 140.6540000 105.5060000 123.6680000 140.6850000
 104.9811057 124.0911082 141.3812381 104.5873487 124.9004789 142.9397628
 103.8984599 127.7963217 141.6167677 102.6063039 127.1425211 142.6840313
 102.2064407 128.2141457 141.2842770 102.3959448 124.1390218 141.2167150
 100.9335256 125.1672270 141.2350774 102.1185857 125.2735068 142.5836063
 106.9779904 125.3334292 138.6059391 108.4621579 124.5773141 139.2507570
 107.1513253 125.5697113 141.1123684 107.1477374 123.8194533 141.2915830
 105.0806078 125.5715210 140.6540000 106.3560000 122.2150000 140.8260000
 102.8750000 127.8350000 149.6230000 103.3130000 127.5130000 148.3050000
 104.8296870 127.6460422 148.2370128 105.4358325 126.7454892 149.1612661
 101.9050000 127.7180000 149.6030000 102.8331500 128.1960745 147.5979185
 103.0044998 126.4848257 148.0919032 105.1457786 128.6589699 148.5080657
 105.1978866 127.4130970 147.2344997 105.0012520 126.9303657 150.0168065
 104.8070000 125.0510000 155.0460000 102.7530000 126.1980000 153.9300000
 102.8639214 127.4311885 154.8249740 101.9888707 125.1128749 154.6747234
 107.3688790 124.5205784 152.3937728 106.8022276 124.6400000 153.8190000
 105.3850000 124.6400000 153.8190000 105.5060000 123.6680000 153.8500000
 104.9811057 124.0911082 154.5462381 104.5873487 124.9004789 156.1047628
 103.8984599 127.7963217 154.7817677 102.6063039 127.1425211 155.8490313
 102.2064407 128.2141457 154.4492770 102.3959448 124.1390218 154.3817150
 100.9335256 125.1672270 154.4000774 102.1185857 125.2735068 155.7486063
 106.9779904 125.3334292 151.7709391 108.4621579 124.5773141 152.4157570
 107.1513253 125.5697113 154.2773684 107.1477374 123.8194533 154.4565830
 105.0806078 125.5715210 153.8190000 106.3560000 122.2150000 153.9910000
 102.8750000 127.8350000 162.7880000 103.3130000 127.5130000 161.4700000
 104.8296870 127.6460422 161.4020128 105.4358325 126.7454892 162.3262661
 101.9050000 127.7180000 162.7680000 102.8331500 128.1960745 160.7629185
 103.0044998 126.4848257 161.2569032 105.1457786 128.6589699 161.6730657
 105.1978866 127.4130970 160.3994997 105.0012520 126.9303657 163.1818065
 104.8070000 125.0510000 168.2110000 102.7530000 126.1980000 167.0950000
 102.8639214 127.4311885 167.9899740 101.9888707 125.1128749 167.8397234
 107.3688790 124.5205784 165.5587728 106.8022276 124.6400000 166.9840000
 105.3850000 124.6400000 166.9840000 105.5060000 123.6680000 167.0150000
 104.9811057 124.0911082 167.7112381 104.5873487 124.9004789 169.2697628
 103.8984599 127.7963217 167.9467677 102.6063039 127.1425211 169.0140313
 102.2064407 128.2141457 167.6142770 102.3959448 124.1390218 167.5467150
 100.9335256 125.1672270 167.5650774 102.1185857 125.2735068 168.9136063
 106.9779904 125.3334292 164.9359391 108.4621579 124.5773141 165.5807570
 107.1513253 125.5697113 167.4423684 107.1477374 123.8194533 167.6215830
 105.0806078 125.5715210 166.9840000 106.3560000 122.2150000 167.1560000
 102.8750000 127.8350000 175.9530000 103.3130000 127.5130000 174.6350000
 104.8296870 127.6460422 174.5670128 105.4358325 126.7454892 175.4912661
 101.9050000 127.7180000 175.9330000 102.8331500 128.1960745 173.9279185
 103.0044998 126.4848257 174.4219032 105.1457786 128.6589699 174.8380657
 105.1978866 127.4130970 173.5644997 105.0012520 126.9303657 176.3468065
 104.8070000 125.0510000 181.3770000 102.7530000 126.1980000 180.2610000
 102.8639214 127.4311885 181.1559740 101.9888707 125.1128749 181.0057234
 107.3688790 124.5205784 178.7247728 106.8022276 124.6400000 180.1500000
 105.3850000 124.6400000 180.1500000 105.5060000 123.6680000 180.1810000
 104.9811057 124.0911082 180.8772381 104.5873487 124.9004789 182.4357628
 103.8984599 127.7963217 181.1127677 102.6063039 127.1425211 182.1800313
 102.2064407 128.2141457 180.7802770 102.3959448 124.1390218 180.7127150
 100.9335256 125.1672270 180.7310774 102.1185857 125.2735068 182.0796063
 106.9779904 125.3334292 178.1019391 108.4621579 124.5773141 178.7467570
 107.1513253 125.5697113 180.6083684 107.1477374 123.8194533 180.7875830
 105.0806078 125.5715210 180.1500000 106.3560000 122.2150000 180.3220000
 102.8750000 127.8350000 189.1190000 103.3130000 127.5130000 187.8010000
 104.8296870 127.6460422 187.7330128 105.4358325 126.7454892 188.6572661
 101.9050000 127.7180000 189.0990000 102.8331500 128.1960745 187.0939185
 103.0044998 126.4848257 187.5879032 105.1457786 128.6589699 188.0040657
 105.1978866 127.4130970 186.7304997 105.0012520 126.9303657 189.5128065
 104.8070000 125.0510000 194.5420000 102.7530000 126.1980000 193.4260000
 102.8639214 127.4311885 194.3209740 101.9888707 125.1128749 194.1707234
 107.3688790 124.5205784 191.8897728 106.8022276 124.6400000 193.3150000
 105.3850000 124.6400000 193.3150000 105.5060000 123.6680000 193.3460000
 104.9811057 124.0911082 194.0422381 104.5873487 124.9004789 195.6007628
 103.8984599 127.7963217 194.2777677 102.6063039 127.1425211 195.3450313
 102.2064407 128.2141457 193.9452770 102.3959448 124.1390218 193.8777150
 100.9335256 125.1672270 193.8960774 102.1185857 125.2735068 195.2446063
 106.9779904 125.3334292 191.2669391 108.4621579 124.5773141 191.9117570
 107.1513253 125.5697113 193.7733684 107.1477374 123.8194533 193.9525830
 105.0806078 125.5715210 193.3150000 106.3560000 122.2150000 193.4870000
 102.8750000 127.8350000 202.2840000 103.3130000 127.5130000 200.9660000
 104.8296870 127.6460422 200.8980128 105.4358325 126.7454892 201.8222661
 101.9050000 127.7180000 202.2640000 102.8331500 128.1960745 200.2589185
 103.0044998 126.4848257 200.7529032 105.1457786 128.6589699 201.1690657
 105.1978866 127.4130970 199.8954997 105.0012520 126.9303657 202.6778065
 104.8070000 132.3670000  76.0550000 102.7530000 133.5140000  74.9390000
 102.8639214 134.7471885  75.8339740 101.9888707 132.4288749  75.6837234
 107.3688790 131.8365784  73.4027728 106.8022276 131.9560000  74.8280000
 105.3850000 131.9560000  74.8280000 105.5060000 130.9840000  74.8590000
 104.9811057 131.4071082  75.5552381 104.5873487 132.2164789  77.1137628
 103.8984599 135.1123217  75.7907677 102.6063039 134.4585211  76.8580313
 102.2064407 135.5301457  75.4582770 102.3959448 131.4550218  75.3907150
 100.9335256 132.4832270  75.4090774 102.1185857 132.5895068  76.7576063
 106.9779904 132.6494292  72.7799391 108.4621579 131.8933141  73.4247570
 107.1513253 132.8857113  75.2863684 107.1477374 131.1354533  75.4655830
 105.0806078 132.8875210  74.8280000 106.3560000 129.5310000  75.0000000
 102.8750000 135.1510000  83.7970000 103.3130000 134.8290000  82.4790000
 104.8296870 134.9620422  82.4110128 105.4358325 134.0614892  83.3352661
 101.9050000 135.0340000  83.7770000 102.8331500 135.5120745  81.7719185
 103.0044998 133.8008257  82.2659032 105.1457786 135.9749699  82.6820657
 105.1978866 134.7290970  81.4084997 105.0012520 134.2463657  84.1908065
 104.8070000 132.3670000  89.2200000 102.7530000 133.5140000  88.1040000
 102.8639214 134.7471885  88.9989740 101.9888707 132.4288749  88.8487234
 107.3688790 131.8365784  86.5677728 106.8022276 131.9560000  87.9930000
 105.3850000 131.9560000  87.9930000 105.5060000 130.9840000  88.0240000
 104.9811057 131.4071082  88.7202381 104.5873487 132.2164789  90.2787628
 103.8984599 135.1123217  88.9557677 102.6063039 134.4585211  90.0230313
 102.2064407 135.5301457  88.6232770 102.3959448 131.4550218  88.5557150
 100.9335256 132.4832270  88.5740774 102.1185857 132.5895068  89.9226063
 106.9779904 132.6494292  85.9449391 108.4621579 131.8933141  86.5897570
 107.1513253 132.8857113  88.4513684 107.1477374 131.1354533  88.6305830
 105.0806078 132.8875210  87.9930000 106.3560000 129.5310000  88.1650000
 102.8750000 135.1510000  96.9620000 103.3130000 134.8290000  95.6440000
 104.8296870 134.9620422  95.5760128 105.4358325 134.0614892  96.5002661
 101.9050000 135.0340000  96.9420000 102.8331500 135.5120745  94.9369185
 103.0044998 133.8008257  95.4309032 105.1457786 135.9749699  95.8470657
 105.1978866 134.7290970  94.5734997 105.0012520 134.2463657  97.3558065
 104.8070000 132.3670000 102.3850000 102.7530000 133.5140000 101.2690000
 102.8639214 134.7471885 102.1639740 101.9888707 132.4288749 102.0137234
 107.3688790 131.8365784  99.7327728 106.8022276 131.9560000 101.1580000
 105.3850000 131.9560000 101.1580000 105.5060000 130.9840000 101.1890000
 104.9811057 131.4071082 101.8852381 104.5873487 132.2164789 103.4437628
 103.8984599 135.1123217 102.1207677 102.6063039 134.4585211 103.1880313
 102.2064407 135.5301457 101.7882770 102.3959448 131.4550218 101.7207150
 100.9335256 132.4832270 101.7390774 102.1185857 132.5895068 103.0876063
 106.9779904 132.6494292  99.1099391 108.4621579 131.8933141  99.7547570
 107.1513253 132.8857113 101.6163684 107.1477374 131.1354533 101.7955830
 105.0806078 132.8875210 101.1580000 106.3560000 129.5310000 101.3300000
 102.8750000 135.1510000 110.1270000 103.3130000 134.8290000 108.8090000
 104.8296870 134.9620422 108.7410128 105.4358325 134.0614892 109.6652661
 101.9050000 135.0340000 110.1070000 102.8331500 135.5120745 108.1019185
 103.0044998 133.8008257 108.5959032 105.1457786 135.9749699 109.0120657
 105.1978866 134.7290970 107.7384997 105.0012520 134.2463657 110.5208065
 104.8070000 132.3670000 115.5510000 102.7530000 133.5140000 114.4350000
 102.8639214 134.7471885 115.3299740 101.9888707 132.4288749 115.1797234
 107.3688790 131.8365784 112.8987728 106.8022276 131.9560000 114.3240000
 105.3850000 131.9560000 114.3240000 105.5060000 130.9840000 114.3550000
 104.9811057 131.4071082 115.0512381 104.5873487 132.2164789 116.6097628
 103.8984599 135.1123217 115.2867677 102.6063039 134.4585211 116.3540313
 102.2064407 135.5301457 114.9542770 102.3959448 131.4550218 114.8867150
 100.9335256 132.4832270 114.9050774 102.1185857 132.5895068 116.2536063
 106.9779904 132.6494292 112.2759391 108.4621579 131.8933141 112.9207570
 107.1513253 132.8857113 114.7823684 107.1477374 131.1354533 114.9615830
 105.0806078 132.8875210 114.3240000 106.3560000 129.5310000 114.4960000
 102.8750000 135.1510000 123.2930000 103.3130000 134.8290000 121.9750000
 104.8296870 134.9620422 121.9070128 105.4358325 134.0614892 122.8312661
 101.9050000 135.0340000 123.2730000 102.8331500 135.5120745 121.2679185
 103.0044998 133.8008257 121.7619032 105.1457786 135.9749699 122.1780657
 105.1978866 134.7290970 120.9044997 105.0012520 134.2463657 123.6868065
 104.8070000 132.3670000 128.7160000 102.7530000 133.5140000 127.6000000
 102.8639214 134.7471885 128.4949740 101.9888707 132.4288749 128.3447234
 107.3688790 131.8365784 126.0637728 106.8022276 131.9560000 127.4890000
 105.3850000 131.9560000 127.4890000 105.5060000 130.9840000 127.5200000
 104.9811057 131.4071082 128.2162381 104.5873487 132.2164789 129.7747628
 103.8984599 135.1123217 128.4517677 102.6063039 134.4585211 129.5190313
 102.2064407 135.5301457 128.1192770 102.3959448 131.4550218 128.0517150
 100.9335256 132.4832270 128.0700774 102.1185857 132.5895068 129.4186063
 106.9779904 132.6494292 125.4409391 108.4621579 131.8933141 126.0857570
 107.1513253 132.8857113 127.9473684 107.1477374 131.1354533 128.1265830
 105.0806078 132.8875210 127.4890000 106.3560000 129.5310000 127.6610000
 102.8750000 135.1510000 136.4580000 103.3130000 134.8290000 135.1400000
 104.8296870 134.9620422 135.0720128 105.4358325 134.0614892 135.9962661
 101.9050000 135.0340000 136.4380000 102.8331500 135.5120745 134.4329185
 103.0044998 133.8008257 134.9269032 105.1457786 135.9749699 135.3430657
 105.1978866 134.7290970 134.0694997 105.0012520 134.2463657 136.8518065
 104.8070000 132.3670000 141.8810000 102.7530000 133.5140000 140.7650000
 102.8639214 134.7471885 141.6599740 101.9888707 132.4288749 141.5097234
 107.3688790 131.8365784 139.2287728 106.8022276 131.9560000 140.6540000
 105.3850000 131.9560000 140.6540000 105.5060000 130.9840000 140.6850000
 104.9811057 131.4071082 141.3812381 104.5873487 132.2164789 142.9397628
 103.8984599 135.1123217 141.6167677 102.6063039 134.4585211 142.6840313
 102.2064407 135.5301457 141.2842770 102.3959448 131.4550218 141.2167150
 100.9335256 132.4832270 141.2350774 102.1185857 132.5895068 142.5836063
 106.9779904 132.6494292 138.6059391 108.4621579 131.8933141 139.2507570
 107.1513253 132.8857113 141.1123684 107.1477374 131.1354533 141.2915830
 105.0806078 132.8875210 140.6540000 106.3560000 129.5310000 140.8260000
 102.8750000 135.1510000 149.6230000 103.3130000 134.8290000 148.3050000
 104.8296870 134.9620422 148.2370128 105.4358325 134.0614892 149.1612661
 101.9050000 135.0340000 149.6030000 102.8331500 135.5120745 147.5979185
 103.0044998 133.8008257 148.0919032 105.1457786 135.9749699 148.5080657
 105.1978866 134.7290970 147.2344997 105.0012520 134.2463657 150.0168065
 104.8070000 132.3670000 155.0460000 102.7530000 133.5140000 153.9300000
 102.8639214 134.7471885 154.8249740 101.9888707 132.4288749 154.6747234
 107.3688790 131.8365784 152.3937728 106.8022276 131.9560000 153.8190000
 105.3850000 131.9560000 153.8190000 105.5060000 130.9840000 153.8500000
 104.9811057 131.4071082 154.5462381 104.5873487 132.2164789 156.1047628
 103.8984599 135.1123217 154.7817677 102.6063039 134.4585211 155.8490313
 102.2064407 135.5301457 154.4492770 102.3959448 131.4550218 154.3817150
 100.9335256 132.4832270 154.4000774 102.1185857 132.5895068 155.7486063
 106.9779904 132.6494292 151.7709391 108.4621579 131.8933141 152.4157570
 107.1513253 132.8857113 154.2773684 107.1477374 131.1354533 154.4565830
 105.0806078 132.8875210 153.8190000 106.3560000 129.5310000 153.9910000
 102.8750000 135.1510000 162.7880000 103.3130000 134.8290000 161.4700000
 104.8296870 134.9620422 161.4020128 105.4358325 134.0614892 162.3262661
 101.9050000 135.0340000 162.7680000 102.8331500 135.5120745 160.7629185
 103.0044998 133.8008257 161.2569032 105.1457786 135.9749699 161.6730657
 105.1978866 134.7290970 160.3994997 105.0012520 134.2463657 163.1818065
 104.8070000 132.3670000 168.2110000 102.7530000 133.5140000 167.0950000
 102.8639214 134.7471885 167.9899740 101.9888707 132.4288749 167.8397234
 107.3688790 131.8365784 165.5587728 106.8022276 131.9560000 166.9840000
 105.3850000 131.9560000 166.9840000 105.5060000 130.9840000 167.0150000
 104.9811057 131.4071082 167.7112381 104.5873487 132.2164789 169.2697628
 103.8984599 135.1123217 167.9467677 102.6063039 134.4585211 169.0140313
 102.2064407 135.5301457 167.6142770 102.3959448 131.4550218 167.5467150
 100.9335256 132.4832270 167.5650774 102.1185857 132.5895068 168.9136063
 106.9779904 132.6494292 164.9359391 108.4621579 131.8933141 165.5807570
 107.1513253 132.8857113 167.4423684 107.1477374 131.1354533 167.6215830
 105.0806078 132.8875210 166.9840000 106.3560000 129.5310000 167.1560000
 102.8750000 135.1510000 175.9530000 103.3130000 134.8290000 174.6350000
 104.8296870 134.9620422 174.5670128 105.4358325 134.0614892 175.4912661
 101.9050000 135.0340000 175.9330000 102.8331500 135.5120745 173.9279185
 103.0044998 133.8008257 174.4219032 105.1457786 135.9749699 174.8380657
 105.1978866 134.7290970 173.5644997 105.0012520 134.2463657 176.3468065
 104.8070000 132.3670000 181.3770000 102.7530000 133.5140000 180.2610000
 102.8639214 134.7471885 181.1559740 101.9888707 132.4288749 181.0057234
 107.3688790 131.8365784 178.7247728 106.8022276 131.9560000 180.1500000
 105.3850000 131.9560000 180.1500000 105.5060000 130.9840000 180.1810000
 104.9811057 131.4071082 180.8772381 104.5873487 132.2164789 182.4357628
 103.8984599 135.1123217 181.1127677 102.6063039 134.4585211 182.1800313
 102.2064407 135.5301457 180.7802770 102.3959448 131.4550218 180.7127150
 100.9335256 132.4832270 180.7310774 102.1185857 132.5895068 182.0796063
 106.9779904 132.6494292 178.1019391 108.4621579 131.8933141 178.7467570
 107.1513253 132.8857113 180.6083684 107.1477374 131.1354533 180.7875830
 105.0806078 132.8875210 180.1500000 106.3560000 129.5310000 180.3220000
 102.8750000 135.1510000 189.1190000 103.3130000 134.8290000 187.8010000
 104.8296870 134.9620422 187.7330128 105.4358325 134.0614892 188.6572661
 101.9050000 135.0340000 189.0990000 102.8331500 135.5120745 187.0939185
 103.0044998 133.8008257 187.5879032 105.1457786 135.9749699 188.0040657
 105.1978866 134.7290970 186.7304997 105.0012520 134.2463657 189.5128065
 104.8070000 132.3670000 194.5420000 102.7530000 133.5140000 193.4260000
 102.8639214 134.7471885 194.3209740 101.9888707 132.4288749 194.1707234
 107.3688790 131.8365784 191.8897728 106.8022276 131.9560000 193.3150000
 105.3850000 131.9560000 193.3150000 105.5060000 130.9840000 193.3460000
 104.9811057 131.4071082 194.0422381 104.5873487 132.2164789 195.6007628
 103.8984599 135.1123217 194.2777677 102.6063039 134.4585211 195.3450313
 102.2064407 135.5301457 193.9452770 102.3959448 131.4550218 193.8777150
 100.9335256 132.4832270 193.8960774 102.1185857 132.5895068 195.2446063
 106.9779904 132.6494292 191.2669391 108.4621579 131.8933141 191.9117570
 107.1513253 132.8857113 193.7733684 107.1477374 131.1354533 193.9525830
 105.0806078 132.8875210 193.3150000 106.3560000 129.5310000 193.4870000
 102.8750000 135.1510000 202.2840000 103.3130000 134.8290000 200.9660000
 104.8296870 134.9620422 200.8980128 105.4358325 134.0614892 201.8222661
 101.9050000 135.0340000 202.2640000 102.8331500 135.5120745 200.2589185
 103.0044998 133.8008257 200.7529032 105.1457786 135.9749699 201.1690657
 105.1978866 134.7290970 199.8954997 105.0012520 134.2463657 202.6778065
 104.8070000 139.6840000  76.0550000 102.7530000 140.8310000  74.9390000
 102.8639214 142.0641885  75.8339740 101.9888707 139.7458749  75.6837234
 107.3688790 139.1535784  73.4027728 106.8022276 139.2730000  74.8280000
 105.3850000 139.2730000  74.8280000 105.5060000 138.3010000  74.8590000
 104.9811057 138.7241082  75.5552381 104.5873487 139.5334789  77.1137628
 103.8984599 142.4293217  75.7907677 102.6063039 141.7755211  76.8580313
 102.2064407 142.8471457  75.4582770 102.3959448 138.7720218  75.3907150
 100.9335256 139.8002270  75.4090774 102.1185857 139.9065068  76.7576063
 106.9779904 139.9664292  72.7799391 108.4621579 139.2103141  73.4247570
 107.1513253 140.2027113  75.2863684 107.1477374 138.4524533  75.4655830
 105.0806078 140.2045210  74.8280000 106.3560000 136.8480000  75.0000000
 102.8750000 142.4680000  83.7970000 103.3130000 142.1460000  82.4790000
 104.8296870 142.2790422  82.4110128 105.4358325 141.3784892  83.3352661
 101.9050000 142.3510000  83.7770000 102.8331500 142.8290745  81.7719185
 103.0044998 141.1178257  82.2659032 105.1457786 143.2919699  82.6820657
 105.1978866 142.0460970  81.4084997 105.0012520 141.5633657  84.1908065
 104.8070000 139.6840000  89.2200000 102.7530000 140.8310000  88.1040000
 102.8639214 142.0641885  88.9989740 101.9888707 139.7458749  88.8487234
 107.3688790 139.1535784  86.5677728 106.8022276 139.2730000  87.9930000
 105.3850000 139.2730000  87.9930000 105.5060000 138.3010000  88.0240000
 104.9811057 138.7241082  88.7202381 104.5873487 139.5334789  90.2787628
 103.8984599 142.4293217  88.9557677 102.6063039 141.7755211  90.0230313
 102.2064407 142.8471457  88.6232770 102.3959448 138.7720218  88.5557150
 100.9335256 139.8002270  88.5740774 102.1185857 139.9065068  89.9226063
 106.9779904 139.9664292  85.9449391 108.4621579 139.2103141  86.5897570
 107.1513253 140.2027113  88.4513684 107.1477374 138.4524533  88.6305830
 105.0806078 140.2045210  87.9930000 106.3560000 136.8480000  88.1650000
 102.8750000 142.4680000  96.9620000 103.3130000 142.1460000  95.6440000
 104.8296870 142.2790422  95.5760128 105.4358325 141.3784892  96.5002661
 101.9050000 142.3510000  96.9420000 102.8331500 142.8290745  94.9369185
 103.0044998 141.1178257  95.4309032 105.1457786 143.2919699  95.8470657
 105.1978866 142.0460970  94.5734997 105.0012520 141.5633657  97.3558065
 104.8070000 139.6840000 102.3850000 102.7530000 140.8310000 101.2690000
 102.8639214 142.0641885 102.1639740 101.9888707 139.7458749 102.0137234
 107.3688790 139.1535784  99.7327728 106.8022276 139.2730000 101.1580000
 105.3850000 139.2730000 101.1580000 105.5060000 138.3010000 101.1890000
 104.9811057 138.7241082 101.8852381 104.5873487 139.5334789 103.4437628
 103.8984599 142.4293217 102.1207677 102.6063039 141.7755211 103.1880313
 102.2064407 142.8471457 101.7882770 102.3959448 138.7720218 101.7207150
 100.9335256 139.8002270 101.7390774 102.1185857 139.9065068 103.0876063
 106.9779904 139.9664292  99.1099391 108.4621579 139.2103141  99.7547570
 107.1513253 140.2027113 101.6163684 107.1477374 138.4524533 101.7955830
 105.0806078 140.2045210 101.1580000 106.3560000 136.8480000 101.3300000
 102.8750000 142.4680000 110.1270000 103.3130000 142.1460000 108.8090000
 104.8296870 142.2790422 108.7410128 105.4358325 141.3784892 109.6652661
 101.9050000 142.3510000 110.1070000 102.8331500 142.8290745 108.1019185
 103.0044998 141.1178257 108.5959032 105.1457786 143.2919699 109.0120657
 105.1978866 142.0460970 107.7384997 105.0012520 141.5633657 110.5208065
 104.8070000 139.6840000 115.5510000 102.7530000 140.8310000 114.4350000
 102.8639214 142.0641885 115.3299740 101.9888707 139.7458749 115.1797234
 107.3688790 139.1535784 112.8987728 106.8022276 139.2730000 114.3240000
 105.3850000 139.2730000 114.3240000 105.5060000 138.3010000 114.3550000
 104.9811057 138.7241082 115.0512381 104.5873487 139.5334789 116.6097628
 103.8984599 142.4293217 115.2867677 102.6063039 141.7755211 116.3540313
 102.2064407 142.8471457 114.9542770 102.3959448 138.7720218 114.8867150
 100.9335256 139.8002270 114.9050774 102.1185857 139.9065068 116.2536063
 106.9779904 139.9664292 112.2759391 108.4621579 139.2103141 112.9207570
 107.1513253 140.2027113 114.7823684 107.1477374 138.4524533 114.9615830
 105.0806078 140.2045210 114.3240000 106.3560000 136.8480000 114.4960000
 102.8750000 142.4680000 123.2930000 103.3130000 142.1460000 121.9750000
 104.8296870 142.2790422 121.9070128 105.4358325 141.3784892 122.8312661
 101.9050000 142.3510000 123.2730000 102.8331500 142.8290745 121.2679185
 103.0044998 141.1178257 121.7619032 105.1457786 143.2919699 122.1780657
 105.1978866 142.0460970 120.9044997 105.0012520 141.5633657 123.6868065
 104.8070000 139.6840000 128.7160000 102.7530000 140.8310000 127.6000000
 102.8639214 142.0641885 128.4949740 101.9888707 139.7458749 128.3447234
 107.3688790 139.1535784 126.0637728 106.8022276 139.2730000 127.4890000
 105.3850000 139.2730000 127.4890000 105.5060000 138.3010000 127.5200000
 104.9811057 138.7241082 128.2162381 104.5873487 139.5334789 129.7747628
 103.8984599 142.4293217 128.4517677 102.6063039 141.7755211 129.5190313
 102.2064407 142.8471457 128.1192770 102.3959448 138.7720218 128.0517150
 100.9335256 139.8002270 128.0700774 102.1185857 139.9065068 129.4186063
 106.9779904 139.9664292 125.4409391 108.4621579 139.2103141 126.0857570
 107.1513253 140.2027113 127.9473684 107.1477374 138.4524533 128.1265830
 105.0806078 140.2045210 127.4890000 106.3560000 136.8480000 127.6610000
 102.8750000 142.4680000 136.4580000 103.3130000 142.1460000 135.1400000
 104.8296870 142.2790422 135.0720128 105.4358325 141.3784892 135.9962661
 101.9050000 142.3510000 136.4380000 102.8331500 142.8290745 134.4329185
 103.0044998 141.1178257 134.9269032 105.1457786 143.2919699 135.3430657
 105.1978866 142.0460970 134.0694997 105.0012520 141.5633657 136.8518065
 104.8070000 139.6840000 141.8810000 102.7530000 140.8310000 140.7650000
 102.8639214 142.0641885 141.6599740 101.9888707 139.7458749 141.5097234
 107.3688790 139.1535784 139.2287728 106.8022276 139.2730000 140.6540000
 105.3850000 139.2730000 140.6540000 105.5060000 138.3010000 140.6850000
 104.9811057 138.7241082 141.3812381 104.5873487 139.5334789 142.9397628
 103.8984599 142.4293217 141.6167677 102.6063039 141.7755211 142.6840313
 102.2064407 142.8471457 141.2842770 102.3959448 138.7720218 141.2167150
 100.9335256 139.8002270 141.2350774 102.1185857 139.9065068 142.5836063
 106.9779904 139.9664292 138.6059391 108.4621579 139.2103141 139.2507570
 107.1513253 140.2027113 141.1123684 107.1477374 138.4524533 141.2915830
 105.0806078 140.2045210 140.6540000 106.3560000 136.8480000 140.8260000
 102.8750000 142.4680000 149.6230000 103.3130000 142.1460000 148.3050000
 104.8296870 142.2790422 148.2370128 105.4358325 141.3784892 149.1612661
 101.9050000 142.3510000 149.6030000 102.8331500 142.8290745 147.5979185
 103.0044998 141.1178257 148.0919032 105.1457786 143.2919699 148.5080657
 105.1978866 142.0460970 147.2344997 105.0012520 141.5633657 150.0168065
 104.8070000 139.6840000 155.0460000 102.7530000 140.8310000 153.9300000
 102.8639214 142.0641885 154.8249740 101.9888707 139.7458749 154.6747234
 107.3688790 139.1535784 152.3937728 106.8022276 139.2730000 153.8190000
 105.3850000 139.2730000 153.8190000 105.5060000 138.3010000 153.8500000
 104.9811057 138.7241082 154.5462381 104.5873487 139.5334789 156.1047628
 103.8984599 142.4293217 154.7817677 102.6063039 141.7755211 155.8490313
 102.2064407 142.8471457 154.4492770 102.3959448 138.7720218 154.3817150
 100.9335256 139.8002270 154.4000774 102.1185857 139.9065068 155.7486063
 106.9779904 139.9664292 151.7709391 108.4621579 139.2103141 152.4157570
 107.1513253 140.2027113 154.2773684 107.1477374 138.4524533 154.4565830
 105.0806078 140.2045210 153.8190000 106.3560000 136.8480000 153.9910000
 102.8750000 142.4680000 162.7880000 103.3130000 142.1460000 161.4700000
 104.8296870 142.2790422 161.4020128 105.4358325 141.3784892 162.3262661
 101.9050000 142.3510000 162.7680000 102.8331500 142.8290745 160.7629185
 103.0044998 141.1178257 161.2569032 105.1457786 143.2919699 161.6730657
 105.1978866 142.0460970 160.3994997 105.0012520 141.5633657 163.1818065
 104.8070000 139.6840000 168.2110000 102.7530000 140.8310000 167.0950000
 102.8639214 142.0641885 167.9899740 101.9888707 139.7458749 167.8397234
 107.3688790 139.1535784 165.5587728 106.8022276 139.2730000 166.9840000
 105.3850000 139.2730000 166.9840000 105.5060000 138.3010000 167.0150000
 104.9811057 138.7241082 167.7112381 104.5873487 139.5334789 169.2697628
 103.8984599 142.4293217 167.9467677 102.6063039 141.7755211 169.0140313
 102.2064407 142.8471457 167.6142770 102.3959448 138.7720218 167.5467150
 100.9335256 139.8002270 167.5650774 102.1185857 139.9065068 168.9136063
 106.9779904 139.9664292 164.9359391 108.4621579 139.2103141 165.5807570
 107.1513253 140.2027113 167.4423684 107.1477374 138.4524533 167.6215830
 105.0806078 140.2045210 166.9840000 106.3560000 136.8480000 167.1560000
 102.8750000 142.4680000 175.9530000 103.3130000 142.1460000 174.6350000
 104.8296870 142.2790422 174.5670128 105.4358325 141.3784892 175.4912661
 101.9050000 142.3510000 175.9330000 102.8331500 142.8290745 173.9279185
 103.0044998 141.1178257 174.4219032 105.1457786 143.2919699 174.8380657
 105.1978866 142.0460970 173.5644997 105.0012520 141.5633657 176.3468065
 104.8070000 139.6840000 181.3770000 102.7530000 140.8310000 180.2610000
 102.8639214 142.0641885 181.1559740 101.9888707 139.7458749 181.0057234
 107.3688790 139.1535784 178.7247728 106.8022276 139.2730000 180.1500000
 105.3850000 139.2730000 180.1500000 105.5060000 138.3010000 180.1810000
 104.9811057 138.7241082 180.8772381 104.5873487 139.5334789 182.4357628
 103.8984599 142.4293217 181.1127677 102.6063039 141.7755211 182.1800313
 102.2064407 142.8471457 180.7802770 102.3959448 138.7720218 180.7127150
 100.9335256 139.8002270 180.7310774 102.1185857 139.9065068 182.0796063
 106.9779904 139.9664292 178.1019391 108.4621579 139.2103141 178.7467570
 107.1513253 140.2027113 180.6083684 107.1477374 138.4524533 180.7875830
 105.0806078 140.2045210 180.1500000 106.3560000 136.8480000 180.3220000
 102.8750000 142.4680000 189.1190000 103.3130000 142.1460000 187.8010000
 104.8296870 142.2790422 187.7330128 105.4358325 141.3784892 188.6572661
 101.9050000 142.3510000 189.0990000 102.8331500 142.8290745 187.0939185
 103.0044998 141.1178257 187.5879032 105.1457786 143.2919699 188.0040657
 105.1978866 142.0460970 186.7304997 105.0012520 141.5633657 189.5128065
 104.8070000 139.6840000 194.5420000 102.7530000 140.8310000 193.4260000
 102.8639214 142.0641885 194.3209740 101.9888707 139.7458749 194.1707234
 107.3688790 139.1535784 191.8897728 106.8022276 139.2730000 193.3150000
 105.3850000 139.2730000 193.3150000 105.5060000 138.3010000 193.3460000
 104.9811057 138.7241082 194.0422381 104.5873487 139.5334789 195.6007628
 103.8984599 142.4293217 194.2777677 102.6063039 141.7755211 195.3450313
 102.2064407 142.8471457 193.9452770 102.3959448 138.7720218 193.8777150
 100.9335256 139.8002270 193.8960774 102.1185857 139.9065068 195.2446063
 106.9779904 139.9664292 191.2669391 108.4621579 139.2103141 191.9117570
 107.1513253 140.2027113 193.7733684 107.1477374 138.4524533 193.9525830
 105.0806078 140.2045210 193.3150000 106.3560000 136.8480000 193.4870000
 102.8750000 142.4680000 202.2840000 103.3130000 142.1460000 200.9660000
 104.8296870 142.2790422 200.8980128 105.4358325 141.3784892 201.8222661
 101.9050000 142.3510000 202.2640000 102.8331500 142.8290745 200.2589185
 103.0044998 141.1178257 200.7529032 105.1457786 143.2919699 201.1690657
 105.1978866 142.0460970 199.8954997 105.0012520 141.5633657 202.6778065
 117.4850000  73.8360000  76.0550000 115.4310000  74.9830000  74.9390000
 115.5419214  76.2161885  75.8339740 114.6668707  73.8978749  75.6837234
 120.0468790  73.3055784  73.4027728 119.4802276  73.4250000  74.8280000
 118.0630000  73.4250000  74.8280000 118.1840000  72.4530000  74.8590000
 117.6591057  72.8761082  75.5552381 117.2653487  73.6854789  77.1137628
 116.5764599  76.5813217  75.7907677 115.2843039  75.9275211  76.8580313
 114.8844407  76.9991457  75.4582770 115.0739448  72.9240218  75.3907150
 113.6115256  73.9522270  75.4090774 114.7965857  74.0585068  76.7576063
 119.6559904  74.1184292  72.7799391 121.1401579  73.3623141  73.4247570
 119.8293253  74.3547113  75.2863684 119.8257374  72.6044533  75.4655830
 117.7586078  74.3565210  74.8280000 119.0340000  71.0000000  75.0000000
 115.5530000  76.6200000  83.7970000 115.9910000  76.2980000  82.4790000
 117.5076870  76.4310422  82.4110128 118.1138325  75.5304892  83.3352661
 114.5830000  76.5030000  83.7770000 115.5111500  76.9810745  81.7719185
 115.6824998  75.2698257  82.2659032 117.8237786  77.4439699  82.6820657
 117.8758866  76.1980970  81.4084997 117.6792520  75.7153657  84.1908065
 117.4850000  73.8360000  89.2200000 115.4310000  74.9830000  88.1040000
 115.5419214  76.2161885  88.9989740 114.6668707  73.8978749  88.8487234
 120.0468790  73.3055784  86.5677728 119.4802276  73.4250000  87.9930000
 118.0630000  73.4250000  87.9930000 118.1840000  72.4530000  88.0240000
 117.6591057  72.8761082  88.7202381 117.2653487  73.6854789  90.2787628
 116.5764599  76.5813217  88.9557677 115.2843039  75.9275211  90.0230313
 114.8844407  76.9991457  88.6232770 115.0739448  72.9240218  88.5557150
 113.6115256  73.9522270  88.5740774 114.7965857  74.0585068  89.9226063
 119.6559904  74.1184292  85.9449391 121.1401579  73.3623141  86.5897570
 119.8293253  74.3547113  88.4513684 119.8257374  72.6044533  88.6305830
 117.7586078  74.3565210  87.9930000 119.0340000  71.0000000  88.1650000
 115.5530000  76.6200000  96.9620000 115.9910000  76.2980000  95.6440000
 117.5076870  76.4310422  95.5760128 118.1138325  75.5304892  96.5002661
 114.5830000  76.5030000  96.9420000 115.5111500  76.9810745  94.9369185
 115.6824998  75.2698257  95.4309032 117.8237786  77.4439699  95.8470657
 117.8758866  76.1980970  94.5734997 117.6792520  75.7153657  97.3558065
 117.4850000  73.8360000 102.3850000 115.4310000  74.9830000 101.2690000
 115.5419214  76.2161885 102.1639740 114.6668707  73.8978749 102.0137234
 120.0468790  73.3055784  99.7327728 119.4802276  73.4250000 101.1580000
 118.0630000  73.4250000 101.1580000 118.1840000  72.4530000 101.1890000
 117.6591057  72.8761082 101.8852381 117.2653487  73.6854789 103.4437628
 116.5764599  76.5813217 102.1207677 115.2843039  75.9275211 103.1880313
 114.8844407  76.9991457 101.7882770 115.0739448  72.9240218 101.7207150
 113.6115256  73.9522270 101.7390774 114.7965857  74.0585068 103.0876063
 119.6559904  74.1184292  99.1099391 121.1401579  73.3623141  99.7547570
 119.8293253  74.3547113 101.6163684 119.8257374  72.6044533 101.7955830
 117.7586078  74.3565210 101.1580000 119.0340000  71.0000000 101.3300000
 115.5530000  76.6200000 110.1270000 115.9910000  76.2980000 108.8090000
 117.5076870  76.4310422 108.7410128 118.1138325  75.5304892 109.6652661
 114.5830000  76.5030000 110.1070000 115.5111500  76.9810745 108.1019185
 115.6824998  75.2698257 108.5959032 117.8237786  77.4439699 109.0120657
 117.8758866  76.1980970 107.7384997 117.6792520  75.7153657 110.5208065
 117.4850000  73.8360000 115.5510000 115.4310000  74.9830000 114.4350000
 115.5419214  76.2161885 115.3299740 114.6668707  73.8978749 115.1797234
 120.0468790  73.3055784 112.8987728 119.4802276  73.4250000 114.3240000
 118.0630000  73.4250000 114.3240000 118.1840000  72.4530000 114.3550000
 117.6591057  72.8761082 115.0512381 117.2653487  73.6854789 116.6097628
 116.5764599  76.5813217 115.2867677 115.2843039  75.9275211 116.3540313
 114.8844407  76.9991457 114.9542770 115.0739448  72.9240218 114.8867150
 113.6115256  73.9522270 114.9050774 114.7965857  74.0585068 116.2536063
 119.6559904  74.1184292 112.2759391 121.1401579  73.3623141 112.9207570
 119.8293253  74.3547113 114.7823684 119.8257374  72.6044533 114.9615830
 117.7586078  74.3565210 114.3240000 119.0340000  71.0000000 114.4960000
 115.5530000  76.6200000 123.2930000 115.9910000  76.2980000 121.9750000
 117.5076870  76.4310422 121.9070128 118.1138325  75.5304892 122.8312661
 114.5830000  76.5030000 123.2730000 115.5111500  76.9810745 121.2679185
 115.6824998  75.2698257 121.7619032 117.8237786  77.4439699 122.1780657
 117.8758866  76.1980970 120.9044997 117.6792520  75.7153657 123.6868065
 117.4850000  73.8360000 128.7160000 115.4310000  74.9830000 127.6000000
 115.5419214  76.2161885 128.4949740 114.6668707  73.8978749 128.3447234
 120.0468790  73.3055784 126.0637728 119.4802276  73.4250000 127.4890000
 118.0630000  73.4250000 127.4890000 118.1840000  72.4530000 127.5200000
 117.6591057  72.8761082 128.2162381 117.2653487  73.6854789 129.7747628
 116.5764599  76.5813217 128.4517677 115.2843039  75.9275211 129.5190313
 114.8844407  76.9991457 128.1192770 115.0739448  72.9240218 128.0517150
 113.6115256  73.9522270 128.0700774 114.7965857  74.0585068 129.4186063
 119.6559904  74.1184292 125.4409391 121.1401579  73.3623141 126.0857570
 119.8293253  74.3547113 127.9473684 119.8257374  72.6044533 128.1265830
 117.7586078  74.3565210 127.4890000 119.0340000  71.0000000 127.6610000
 115.5530000  76.6200000 136.4580000 115.9910000  76.2980000 135.1400000
 117.5076870  76.4310422 135.0720128 118.1138325  75.5304892 135.9962661
 114.5830000  76.5030000 136.4380000 115.5111500  76.9810745 134.4329185
 115.6824998  75.2698257 134.9269032 117.8237786  77.4439699 135.3430657
 117.8758866  76.1980970 134.0694997 117.6792520  75.7153657 136.8518065
 117.4850000  73.8360000 141.8810000 115.4310000  74.9830000 140.7650000
 115.5419214  76.2161885 141.6599740 114.6668707  73.8978749 141.5097234
 120.0468790  73.3055784 139.2287728 119.4802276  73.4250000 140.6540000
 118.0630000  73.4250000 140.6540000 118.1840000  72.4530000 140.6850000
 117.6591057  72.8761082 141.3812381 117.2653487  73.6854789 142.9397628
 116.5764599  76.5813217 141.6167677 115.2843039  75.9275211 142.6840313
 114.8844407  76.9991457 141.2842770 115.0739448  72.9240218 141.2167150
 113.6115256  73.9522270 141.2350774 114.7965857  74.0585068 142.5836063
 119.6559904  74.1184292 138.6059391 121.1401579  73.3623141 139.2507570
 119.8293253  74.3547113 141.1123684 119.8257374  72.6044533 141.2915830
 117.7586078  74.3565210 140.6540000 119.0340000  71.0000000 140.8260000
 115.5530000  76.6200000 149.6230000 115.9910000  76.2980000 148.3050000
 117.5076870  76.4310422 148.2370128 118.1138325  75.5304892 149.1612661
 114.5830000  76.5030000 149.6030000 115.5111500  76.9810745 147.5979185
 115.6824998  75.2698257 148.0919032 117.8237786  77.4439699 148.5080657
 117.8758866  76.1980970 147.2344997 117.6792520  75.7153657 150.0168065
 117.4850000  73.8360000 155.0460000 115.4310000  74.9830000 153.9300000
 115.5419214  76.2161885 154.8249740 114.6668707  73.8978749 154.6747234
 120.0468790  73.3055784 152.3937728 119.4802276  73.4250000 153.8190000
 118.0630000  73.4250000 153.8190000 118.1840000  72.4530000 153.8500000
 117.6591057  72.8761082 154.5462381 117.2653487  73.6854789 156.1047628
 116.5764599  76.5813217 154.7817677 115.2843039  75.9275211 155.8490313
 114.8844407  76.9991457 154.4492770 115.0739448  72.9240218 154.3817150
 113.6115256  73.9522270 154.4000774 114.7965857  74.0585068 155.7486063
 119.6559904  74.1184292 151.7709391 121.1401579  73.3623141 152.4157570
 119.8293253  74.3547113 154.2773684 119.8257374  72.6044533 154.4565830
 117.7586078  74.3565210 153.8190000 119.0340000  71.0000000 153.9910000
 115.5530000  76.6200000 162.7880000 115.9910000  76.2980000 161.4700000
 117.5076870  76.4310422 161.4020128 118.1138325  75.5304892 162.3262661
 114.5830000  76.5030000 162.7680000 115.5111500  76.9810745 160.7629185
 115.6824998  75.2698257 161.2569032 117.8237786  77.4439699 161.6730657
 117.8758866  76.1980970 160.3994997 117.6792520  75.7153657 163.1818065
 117.4850000  73.8360000 168.2110000 115.4310000  74.9830000 167.0950000
 115.5419214  76.2161885 167.9899740 114.6668707  73.8978749 167.8397234
 120.0468790  73.3055784 165.5587728 119.4802276  73.4250000 166.9840000
 118.0630000  73.4250000 166.9840000 118.1840000  72.4530000 167.0150000
 117.6591057  72.8761082 167.7112381 117.2653487  73.6854789 169.2697628
 116.5764599  76.5813217 167.9467677 115.2843039  75.9275211 169.0140313
 114.8844407  76.9991457 167.6142770 115.0739448  72.9240218 167.5467150
 113.6115256  73.9522270 167.5650774 114.7965857  74.0585068 168.9136063
 119.6559904  74.1184292 164.9359391 121.1401579  73.3623141 165.5807570
 119.8293253  74.3547113 167.4423684 119.8257374  72.6044533 167.6215830
 117.7586078  74.3565210 166.9840000 119.0340000  71.0000000 167.1560000
 115.5530000  76.6200000 175.9530000 115.9910000  76.2980000 174.6350000
 117.5076870  76.4310422 174.5670128 118.1138325  75.5304892 175.4912661
 114.5830000  76.5030000 175.9330000 115.5111500  76.9810745 173.9279185
 115.6824998  75.2698257 174.4219032 117.8237786  77.4439699 174.8380657
 117.8758866  76.1980970 173.5644997 117.6792520  75.7153657 176.3468065
 117.4850000  73.8360000 181.3770000 115.4310000  74.9830000 180.2610000
 115.5419214  76.2161885 181.1559740 114.6668707  73.8978749 181.0057234
 120.0468790  73.3055784 178.7247728 119.4802276  73.4250000 180.1500000
 118.0630000  73.4250000 180.1500000 118.1840000  72.4530000 180.1810000
 117.6591057  72.8761082 180.8772381 117.2653487  73.6854789 182.4357628
 116.5764599  76.5813217 181.1127677 115.2843039  75.9275211 182.1800313
 114.8844407  76.9991457 180.7802770 115.0739448  72.9240218 180.7127150
 113.6115256  73.9522270 180.7310774 114.7965857  74.0585068 182.0796063
 119.6559904  74.1184292 178.1019391 121.1401579  73.3623141 178.7467570
 119.8293253  74.3547113 180.6083684 119.8257374  72.6044533 180.7875830
 117.7586078  74.3565210 180.1500000 119.0340000  71.0000000 180.3220000
 115.5530000  76.6200000 189.1190000 115.9910000  76.2980000 187.8010000
 117.5076870  76.4310422 187.7330128 118.1138325  75.5304892 188.6572661
 114.5830000  76.5030000 189.0990000 115.5111500  76.9810745 187.0939185
 115.6824998  75.2698257 187.5879032 117.8237786  77.4439699 188.0040657
 117.8758866  76.1980970 186.7304997 117.6792520  75.7153657 189.5128065
 117.4850000  73.8360000 194.5420000 115.4310000  74.9830000 193.4260000
 115.5419214  76.2161885 194.3209740 114.6668707  73.8978749 194.1707234
 120.0468790  73.3055784 191.8897728 119.4802276  73.4250000 193.3150000
 118.0630000  73.4250000 193.3150000 118.1840000  72.4530000 193.3460000
 117.6591057  72.8761082 194.0422381 117.2653487  73.6854789 195.6007628
 116.5764599  76.5813217 194.2777677 115.2843039  75.9275211 195.3450313
 114.8844407  76.9991457 193.9452770 115.0739448  72.9240218 193.8777150
 113.6115256  73.9522270 193.8960774 114.7965857  74.0585068 195.2446063
 119.6559904  74.1184292 191.2669391 121.1401579  73.3623141 191.9117570
 119.8293253  74.3547113 193.7733684 119.8257374  72.6044533 193.9525830
 117.7586078  74.3565210 193.3150000 119.0340000  71.0000000 193.4870000
 115.5530000  76.6200000 202.2840000 115.9910000  76.2980000 200.9660000
 117.5076870  76.4310422 200.8980128 118.1138325  75.5304892 201.8222661
 114.5830000  76.5030000 202.2640000 115.5111500  76.9810745 200.2589185
 115.6824998  75.2698257 200.7529032 117.8237786  77.4439699 201.1690657
 117.8758866  76.1980970 199.8954997 117.6792520  75.7153657 202.6778065
 117.4850000  81.1520000  76.0550000 115.4310000  82.2990000  74.9390000
 115.5419214  83.5321885  75.8339740 114.6668707  81.2138749  75.6837234
 120.0468790  80.6215784  73.4027728 119.4802276  80.7410000  74.8280000
 118.0630000  80.7410000  74.8280000 118.1840000  79.7690000  74.8590000
 117.6591057  80.1921082  75.5552381 117.2653487  81.0014789  77.1137628
 116.5764599  83.8973217  75.7907677 115.2843039  83.2435211  76.8580313
 114.8844407  84.3151457  75.4582770 115.0739448  80.2400218  75.3907150
 113.6115256  81.2682270  75.4090774 114.7965857  81.3745068  76.7576063
 119.6559904  81.4344292  72.7799391 121.1401579  80.6783141  73.4247570
 119.8293253  81.6707113  75.2863684 119.8257374  79.9204533  75.4655830
 117.7586078  81.6725210  74.8280000 119.0340000  78.3160000  75.0000000
 115.5530000  83.9360000  83.7970000 115.9910000  83.6140000  82.4790000
 117.5076870  83.7470422  82.4110128 118.1138325  82.8464892  83.3352661
 114.5830000  83.8190000  83.7770000 115.5111500  84.2970745  81.7719185
 115.6824998  82.5858257  82.2659032 117.8237786  84.7599699  82.6820657
 117.8758866  83.5140970  81.4084997 117.6792520  83.0313657  84.1908065
 117.4850000  81.1520000  89.2200000 115.4310000  82.2990000  88.1040000
 115.5419214  83.5321885  88.9989740 114.6668707  81.2138749  88.8487234
 120.0468790  80.6215784  86.5677728 119.4802276  80.7410000  87.9930000
 118.0630000  80.7410000  87.9930000 118.1840000  79.7690000  88.0240000
 117.6591057  80.1921082  88.7202381 117.2653487  81.0014789  90.2787628
 116.5764599  83.8973217  88.9557677 115.2843039  83.2435211  90.0230313
 114.8844407  84.3151457  88.6232770 115.0739448  80.2400218  88.5557150
 113.6115256  81.2682270  88.5740774 114.7965857  81.3745068  89.9226063
 119.6559904  81.4344292  85.9449391 121.1401579  80.6783141  86.5897570
 119.8293253  81.6707113  88.4513684 119.8257374  79.9204533  88.6305830
 117.7586078  81.6725210  87.9930000 119.0340000  78.3160000  88.1650000
 115.5530000  83.9360000  96.9620000 115.9910000  83.6140000  95.6440000
 117.5076870  83.7470422  95.5760128 118.1138325  82.8464892  96.5002661
 114.5830000  83.8190000  96.9420000 115.5111500  84.2970745  94.9369185
 115.6824998  82.5858257  95.4309032 117.8237786  84.7599699  95.8470657
 117.8758866  83.5140970  94.5734997 117.6792520  83.0313657  97.3558065
 117.4850000  81.1520000 102.3850000 115.4310000  82.2990000 101.2690000
 115.5419214  83.5321885 102.1639740 114.6668707  81.2138749 102.0137234
 120.0468790  80.6215784  99.7327728 119.4802276  80.7410000 101.1580000
 118.0630000  80.7410000 101.1580000 118.1840000  79.7690000 101.1890000
 117.6591057  80.1921082 101.8852381 117.2653487  81.0014789 103.4437628
 116.5764599  83.8973217 102.1207677 115.2843039  83.2435211 103.1880313
 114.8844407  84.3151457 101.7882770 115.0739448  80.2400218 101.7207150
 113.6115256  81.2682270 101.7390774 114.7965857  81.3745068 103.0876063
 119.6559904  81.4344292  99.1099391 121.1401579  80.6783141  99.7547570
 119.8293253  81.6707113 101.6163684 119.8257374  79.9204533 101.7955830
 117.7586078  81.6725210 101.1580000 119.0340000  78.3160000 101.3300000
 115.5530000  83.9360000 110.1270000 115.9910000  83.6140000 108.8090000
 117.5076870  83.7470422 108.7410128 118.1138325  82.8464892 109.6652661
 114.5830000  83.8190000 110.1070000 115.5111500  84.2970745 108.1019185
 115.6824998  82.5858257 108.5959032 117.8237786  84.7599699 109.0120657
 117.8758866  83.5140970 107.7384997 117.6792520  83.0313657 110.5208065
 117.4850000  81.1520000 115.5510000 115.4310000  82.2990000 114.4350000
 115.5419214  83.5321885 115.3299740 114.6668707  81.2138749 115.1797234
 120.0468790  80.6215784 112.8987728 119.4802276  80.7410000 114.3240000
 118.0630000  80.7410000 114.3240000 118.1840000  79.7690000 114.3550000
 117.6591057  80.1921082 115.0512381 117.2653487  81.0014789 116.6097628
 116.5764599  83.8973217 115.2867677 115.2843039  83.2435211 116.3540313
 114.8844407  84.3151457 114.9542770 115.0739448  80.2400218 114.8867150
 113.6115256  81.2682270 114.9050774 114.7965857  81.3745068 116.2536063
 119.6559904  81.4344292 112.2759391 121.1401579  80.6783141 112.9207570
 119.8293253  81.6707113 114.7823684 119.8257374  79.9204533 114.9615830
 117.7586078  81.6725210 114.3240000 119.0340000  78.3160000 114.4960000
 115.5530000  83.9360000 123.2930000 115.9910000  83.6140000 121.9750000
 117.5076870  83.7470422 121.9070128 118.1138325  82.8464892 122.8312661
 114.5830000  83.8190000 123.2730000 115.5111500  84.2970745 121.2679185
 115.6824998  82.5858257 121.7619032 117.8237786  84.7599699 122.1780657
 117.8758866  83.5140970 120.9044997 117.6792520  83.0313657 123.6868065
 117.4850000  81.1520000 128.7160000 115.4310000  82.2990000 127.6000000
 115.5419214  83.5321885 128.4949740 114.6668707  81.2138749 128.3447234
 120.0468790  80.6215784 126.0637728 119.4802276  80.7410000 127.4890000
 118.0630000  80.7410000 127.4890000 118.1840000  79.7690000 127.5200000
 117.6591057  80.1921082 128.2162381 117.2653487  81.0014789 129.7747628
 116.5764599  83.8973217 128.4517677 115.2843039  83.2435211 129.5190313
 114.8844407  84.3151457 128.1192770 115.0739448  80.2400218 128.0517150
 113.6115256  81.2682270 128.0700774 114.7965857  81.3745068 129.4186063
 119.6559904  81.4344292 125.4409391 121.1401579  80.6783141 126.0857570
 119.8293253  81.6707113 127.9473684 119.8257374  79.9204533 128.1265830
 117.7586078  81.6725210 127.4890000 119.0340000  78.3160000 127.6610000
 115.5530000  83.9360000 136.4580000 115.9910000  83.6140000 135.1400000
 117.5076870  83.7470422 135.0720128 118.1138325  82.8464892 135.9962661
 114.5830000  83.8190000 136.4380000 115.5111500  84.2970745 134.4329185
 115.6824998  82.5858257 134.9269032 117.8237786  84.7599699 135.3430657
 117.8758866  83.5140970 134.0694997 117.6792520  83.0313657 136.8518065
 117.4850000  81.1520000 141.8810000 115.4310000  82.2990000 140.7650000
 115.5419214  83.5321885 141.6599740 114.6668707  81.2138749 141.5097234
 120.0468790  80.6215784 139.2287728 119.4802276  80.7410000 140.6540000
 118.0630000  80.7410000 140.6540000 118.1840000  79.7690000 140.6850000
 117.6591057  80.1921082 141.3812381 117.2653487  81.0014789 142.9397628
 116.5764599  83.8973217 141.6167677 115.2843039  83.2435211 142.6840313
 114.8844407  84.3151457 141.2842770 115.0739448  80.2400218 141.2167150
 113.6115256  81.2682270 141.2350774 114.7965857  81.3745068 142.5836063
 119.6559904  81.4344292 138.6059391 121.1401579  80.6783141 139.2507570
 119.8293253  81.6707113 141.1123684 119.8257374  79.9204533 141.2915830
 117.7586078  81.6725210 140.6540000 119.0340000  78.3160000 140.8260000
 115.5530000  83.9360000 149.6230000 115.9910000  83.6140000 148.3050000
 117.5076870  83.7470422 148.2370128 118.1138325  82.8464892 149.1612661
 114.5830000  83.8190000 149.6030000 115.5111500  84.2970745 147.5979185
 115.6824998  82.5858257 148.0919032 117.8237786  84.7599699 148.5080657
 117.8758866  83.5140970 147.2344997 117.6792520  83.0313657 150.0168065
 117.4850000  81.1520000 155.0460000 115.4310000  82.2990000 153.9300000
 115.5419214  83.5321885 154.8249740 114.6668707  81.2138749 154.6747234
 120.0468790  80.6215784 152.3937728 119.4802276  80.7410000 153.8190000
 118.0630000  80.7410000 153.8190000 118.1840000  79.7690000 153.8500000
 117.6591057  80.1921082 154.5462381 117.2653487  81.0014789 156.1047628
 116.5764599  83.8973217 154.7817677 115.2843039  83.2435211 155.8490313
 114.8844407  84.3151457 154.4492770 115.0739448  80.2400218 154.3817150
 113.6115256  81.2682270 154.4000774 114.7965857  81.3745068 155.7486063
 119.6559904  81.4344292 151.7709391 121.1401579  80.6783141 152.4157570
 119.8293253  81.6707113 154.2773684 119.8257374  79.9204533 154.4565830
 117.7586078  81.6725210 153.8190000 119.0340000  78.3160000 153.9910000
 115.5530000  83.9360000 162.7880000 115.9910000  83.6140000 161.4700000
 117.5076870  83.7470422 161.4020128 118.1138325  82.8464892 162.3262661
 114.5830000  83.8190000 162.7680000 115.5111500  84.2970745 160.7629185
 115.6824998  82.5858257 161.2569032 117.8237786  84.7599699 161.6730657
 117.8758866  83.5140970 160.3994997 117.6792520  83.0313657 163.1818065
 117.4850000  81.1520000 168.2110000 115.4310000  82.2990000 167.0950000
 115.5419214  83.5321885 167.9899740 114.6668707  81.2138749 167.8397234
 120.0468790  80.6215784 165.5587728 119.4802276  80.7410000 166.9840000
 118.0630000  80.7410000 166.9840000 118.1840000  79.7690000 167.0150000
 117.6591057  80.1921082 167.7112381 117.2653487  81.0014789 169.2697628
 116.5764599  83.8973217 167.9467677 115.2843039  83.2435211 169.0140313
 114.8844407  84.3151457 167.6142770 115.0739448  80.2400218 167.5467150
 113.6115256  81.2682270 167.5650774 114.7965857  81.3745068 168.9136063
 119.6559904  81.4344292 164.9359391 121.1401579  80.6783141 165.5807570
 119.8293253  81.6707113 167.4423684 119.8257374  79.9204533 167.6215830
 117.7586078  81.6725210 166.9840000 119.0340000  78.3160000 167.1560000
 115.5530000  83.9360000 175.9530000 115.9910000  83.6140000 174.6350000
 117.5076870  83.7470422 174.5670128 118.1138325  82.8464892 175.4912661
 114.5830000  83.8190000 175.9330000 115.5111500  84.2970745 173.9279185
 115.6824998  82.5858257 174.4219032 117.8237786  84.7599699 174.8380657
 117.8758866  83.5140970 173.5644997 117.6792520  83.0313657 176.3468065
 117.4850000  81.1520000 181.3770000 115.4310000  82.2990000 180.2610000
 115.5419214  83.5321885 181.1559740 114.6668707  81.2138749 181.0057234
 120.0468790  80.6215784 178.7247728 119.4802276  80.7410000 180.1500000
 118.0630000  80.7410000 180.1500000 118.1840000  79.7690000 180.1810000
 117.6591057  80.1921082 180.8772381 117.2653487  81.0014789 182.4357628
 116.5764599  83.8973217 181.1127677 115.2843039  83.2435211 182.1800313
 114.8844407  84.3151457 180.7802770 115.0739448  80.2400218 180.7127150
 113.6115256  81.2682270 180.7310774 114.7965857  81.3745068 182.0796063
 119.6559904  81.4344292 178.1019391 121.1401579  80.6783141 178.7467570
 119.8293253  81.6707113 180.6083684 119.8257374  79.9204533 180.7875830
 117.7586078  81.6725210 180.1500000 119.0340000  78.3160000 180.3220000
 115.5530000  83.9360000 189.1190000 115.9910000  83.6140000 187.8010000
 117.5076870  83.7470422 187.7330128 118.1138325  82.8464892 188.6572661
 114.5830000  83.8190000 189.0990000 115.5111500  84.2970745 187.0939185
 115.6824998  82.5858257 187.5879032 117.8237786  84.7599699 188.0040657
 117.8758866  83.5140970 186.7304997 117.6792520  83.0313657 189.5128065
 117.4850000  81.1520000 194.5420000 115.4310000  82.2990000 193.4260000
 115.5419214  83.5321885 194.3209740 114.6668707  81.2138749 194.1707234
 120.0468790  80.6215784 191.8897728 119.4802276  80.7410000 193.3150000
 118.0630000  80.7410000 193.3150000 118.1840000  79.7690000 193.3460000
 117.6591057  80.1921082 194.0422381 117.2653487  81.0014789 195.6007628
 116.5764599  83.8973217 194.2777677 115.2843039  83.2435211 195.3450313
 114.8844407  84.3151457 193.9452770 115.0739448  80.2400218 193.8777150
 113.6115256  81.2682270 193.8960774 114.7965857  81.3745068 195.2446063
 119.6559904  81.4344292 191.2669391 121.1401579  80.6783141 191.9117570
 119.8293253  81.6707113 193.7733684 119.8257374  79.9204533 193.9525830
 117.7586078  81.6725210 193.3150000 119.0340000  78.3160000 193.4870000
 115.5530000  83.9360000 202.2840000 115.9910000  83.6140000 200.9660000
 117.5076870  83.7470422 200.8980128 118.1138325  82.8464892 201.8222661
 114.5830000  83.8190000 202.2640000 115.5111500  84.2970745 200.2589185
 115.6824998  82.5858257 200.7529032 117.8237786  84.7599699 201.1690657
 117.8758866  83.5140970 199.8954997 117.6792520  83.0313657 202.6778065
 117.4850000  88.4690000  76.0550000 115.4310000  89.6160000  74.9390000
 115.5419214  90.8491885  75.8339740 114.6668707  88.5308749  75.6837234
 120.0468790  87.9385784  73.4027728 119.4802276  88.0580000  74.8280000
 118.0630000  88.0580000  74.8280000 118.1840000  87.0860000  74.8590000
 117.6591057  87.5091082  75.5552381 117.2653487  88.3184789  77.1137628
 116.5764599  91.2143217  75.7907677 115.2843039  90.5605211  76.8580313
 114.8844407  91.6321457  75.4582770 115.0739448  87.5570218  75.3907150
 113.6115256  88.5852270  75.4090774 114.7965857  88.6915068  76.7576063
 119.6559904  88.7514292  72.7799391 121.1401579  87.9953141  73.4247570
 119.8293253  88.9877113  75.2863684 119.8257374  87.2374533  75.4655830
 117.7586078  88.9895210  74.8280000 119.0340000  85.6330000  75.0000000
 115.5530000  91.2530000  83.7970000 115.9910000  90.9310000  82.4790000
 117.5076870  91.0640422  82.4110128 118.1138325  90.1634892  83.3352661
 114.5830000  91.1360000  83.7770000 115.5111500  91.6140745  81.7719185
 115.6824998  89.9028257  82.2659032 117.8237786  92.0769699  82.6820657
 117.8758866  90.8310970  81.4084997 117.6792520  90.3483657  84.1908065
 117.4850000  88.4690000  89.2200000 115.4310000  89.6160000  88.1040000
 115.5419214  90.8491885  88.9989740 114.6668707  88.5308749  88.8487234
 120.0468790  87.9385784  86.5677728 119.4802276  88.0580000  87.9930000
 118.0630000  88.0580000  87.9930000 118.1840000  87.0860000  88.0240000
 117.6591057  87.5091082  88.7202381 117.2653487  88.3184789  90.2787628
 116.5764599  91.2143217  88.9557677 115.2843039  90.5605211  90.0230313
 114.8844407  91.6321457  88.6232770 115.0739448  87.5570218  88.5557150
 113.6115256  88.5852270  88.5740774 114.7965857  88.6915068  89.9226063
 119.6559904  88.7514292  85.9449391 121.1401579  87.9953141  86.5897570
 119.8293253  88.9877113  88.4513684 119.8257374  87.2374533  88.6305830
 117.7586078  88.9895210  87.9930000 119.0340000  85.6330000  88.1650000
 115.5530000  91.2530000  96.9620000 115.9910000  90.9310000  95.6440000
 117.5076870  91.0640422  95.5760128 118.1138325  90.1634892  96.5002661
 114.5830000  91.1360000  96.9420000 115.5111500  91.6140745  94.9369185
 115.6824998  89.9028257  95.4309032 117.8237786  92.0769699  95.8470657
 117.8758866  90.8310970  94.5734997 117.6792520  90.3483657  97.3558065
 117.4850000  88.4690000 102.3850000 115.4310000  89.6160000 101.2690000
 115.5419214  90.8491885 102.1639740 114.6668707  88.5308749 102.0137234
 120.0468790  87.9385784  99.7327728 119.4802276  88.0580000 101.1580000
 118.0630000  88.0580000 101.1580000 118.1840000  87.0860000 101.1890000
 117.6591057  87.5091082 101.8852381 117.2653487  88.3184789 103.4437628
 116.5764599  91.2143217 102.1207677 115.2843039  90.5605211 103.1880313
 114.8844407  91.6321457 101.7882770 115.0739448  87.5570218 101.7207150
 113.6115256  88.5852270 101.7390774 114.7965857  88.6915068 103.0876063
 119.6559904  88.7514292  99.1099391 121.1401579  87.9953141  99.7547570
 119.8293253  88.9877113 101.6163684 119.8257374  87.2374533 101.7955830
 117.7586078  88.9895210 101.1580000 119.0340000  85.6330000 101.3300000
 115.5530000  91.2530000 110.1270000 115.9910000  90.9310000 108.8090000
 117.5076870  91.0640422 108.7410128 118.1138325  90.1634892 109.6652661
 114.5830000  91.1360000 110.1070000 115.5111500  91.6140745 108.1019185
 115.6824998  89.9028257 108.5959032 117.8237786  92.0769699 109.0120657
 117.8758866  90.8310970 107.7384997 117.6792520  90.3483657 110.5208065
 117.4850000  88.4690000 115.5510000 115.4310000  89.6160000 114.4350000
 115.5419214  90.8491885 115.3299740 114.6668707  88.5308749 115.1797234
 120.0468790  87.9385784 112.8987728 119.4802276  88.0580000 114.3240000
 118.0630000  88.0580000 114.3240000 118.1840000  87.0860000 114.3550000
 117.6591057  87.5091082 115.0512381 117.2653487  88.3184789 116.6097628
 116.5764599  91.2143217 115.2867677 115.2843039  90.5605211 116.3540313
 114.8844407  91.6321457 114.9542770 115.0739448  87.5570218 114.8867150
 113.6115256  88.5852270 114.9050774 114.7965857  88.6915068 116.2536063
 119.6559904  88.7514292 112.2759391 121.1401579  87.9953141 112.9207570
 119.8293253  88.9877113 114.7823684 119.8257374  87.2374533 114.9615830
 117.7586078  88.9895210 114.3240000 119.0340000  85.6330000 114.4960000
 115.5530000  91.2530000 123.2930000 115.9910000  90.9310000 121.9750000
 117.5076870  91.0640422 121.9070128 118.1138325  90.1634892 122.8312661
 114.5830000  91.1360000 123.2730000 115.5111500  91.6140745 121.2679185
 115.6824998  89.9028257 121.7619032 117.8237786  92.0769699 122.1780657
 117.8758866  90.8310970 120.9044997 117.6792520  90.3483657 123.6868065
 117.4850000  88.4690000 128.7160000 115.4310000  89.6160000 127.6000000
 115.5419214  90.8491885 128.4949740 114.6668707  88.5308749 128.3447234
 120.0468790  87.9385784 126.0637728 119.4802276  88.0580000 127.4890000
 118.0630000  88.0580000 127.4890000 118.1840000  87.0860000 127.5200000
 117.6591057  87.5091082 128.2162381 117.2653487  88.3184789 129.7747628
 116.5764599  91.2143217 128.4517677 115.2843039  90.5605211 129.5190313
 114.8844407  91.6321457 128.1192770 115.0739448  87.5570218 128.0517150
 113.6115256  88.5852270 128.0700774 114.7965857  88.6915068 129.4186063
 119.6559904  88.7514292 125.4409391 121.1401579  87.9953141 126.0857570
 119.8293253  88.9877113 127.9473684 119.8257374  87.2374533 128.1265830
 117.7586078  88.9895210 127.4890000 119.0340000  85.6330000 127.6610000
 115.5530000  91.2530000 136.4580000 115.9910000  90.9310000 135.1400000
 117.5076870  91.0640422 135.0720128 118.1138325  90.1634892 135.9962661
 114.5830000  91.1360000 136.4380000 115.5111500  91.6140745 134.4329185
 115.6824998  89.9028257 134.9269032 117.8237786  92.0769699 135.3430657
 117.8758866  90.8310970 134.0694997 117.6792520  90.3483657 136.8518065
 117.4850000  88.4690000 141.8810000 115.4310000  89.6160000 140.7650000
 115.5419214  90.8491885 141.6599740 114.6668707  88.5308749 141.5097234
 120.0468790  87.9385784 139.2287728 119.4802276  88.0580000 140.6540000
 118.0630000  88.0580000 140.6540000 118.1840000  87.0860000 140.6850000
 117.6591057  87.5091082 141.3812381 117.2653487  88.3184789 142.9397628
 116.5764599  91.2143217 141.6167677 115.2843039  90.5605211 142.6840313
 114.8844407  91.6321457 141.2842770 115.0739448  87.5570218 141.2167150
 113.6115256  88.5852270 141.2350774 114.7965857  88.6915068 142.5836063
 119.6559904  88.7514292 138.6059391 121.1401579  87.9953141 139.2507570
 119.8293253  88.9877113 141.1123684 119.8257374  87.2374533 141.2915830
 117.7586078  88.9895210 140.6540000 119.0340000  85.6330000 140.8260000
 115.5530000  91.2530000 149.6230000 115.9910000  90.9310000 148.3050000
 117.5076870  91.0640422 148.2370128 118.1138325  90.1634892 149.1612661
 114.5830000  91.1360000 149.6030000 115.5111500  91.6140745 147.5979185
 115.6824998  89.9028257 148.0919032 117.8237786  92.0769699 148.5080657
 117.8758866  90.8310970 147.2344997 117.6792520  90.3483657 150.0168065
 117.4850000  88.4690000 155.0460000 115.4310000  89.6160000 153.9300000
 115.5419214  90.8491885 154.8249740 114.6668707  88.5308749 154.6747234
 120.0468790  87.9385784 152.3937728 119.4802276  88.0580000 153.8190000
 118.0630000  88.0580000 153.8190000 118.1840000  87.0860000 153.8500000
 117.6591057  87.5091082 154.5462381 117.2653487  88.3184789 156.1047628
 116.5764599  91.2143217 154.7817677 115.2843039  90.5605211 155.8490313
 114.8844407  91.6321457 154.4492770 115.0739448  87.5570218 154.3817150
 113.6115256  88.5852270 154.4000774 114.7965857  88.6915068 155.7486063
 119.6559904  88.7514292 151.7709391 121.1401579  87.9953141 152.4157570
 119.8293253  88.9877113 154.2773684 119.8257374  87.2374533 154.4565830
 117.7586078  88.9895210 153.8190000 119.0340000  85.6330000 153.9910000
 115.5530000  91.2530000 162.7880000 115.9910000  90.9310000 161.4700000
 117.5076870  91.0640422 161.4020128 118.1138325  90.1634892 162.3262661
 114.5830000  91.1360000 162.7680000 115.5111500  91.6140745 160.7629185
 115.6824998  89.9028257 161.2569032 117.8237786  92.0769699 161.6730657
 117.8758866  90.8310970 160.3994997 117.6792520  90.3483657 163.1818065
 117.4850000  88.4690000 168.2110000 115.4310000  89.6160000 167.0950000
 115.5419214  90.8491885 167.9899740 114.6668707  88.5308749 167.8397234
 120.0468790  87.9385784 165.5587728 119.4802276  88.0580000 166.9840000
 118.0630000  88.0580000 166.9840000 118.1840000  87.0860000 167.0150000
 117.6591057  87.5091082 167.7112381 117.2653487  88.3184789 169.2697628
 116.5764599  91.2143217 167.9467677 115.2843039  90.5605211 169.0140313
 114.8844407  91.6321457 167.6142770 115.0739448  87.5570218 167.5467150
 113.6115256  88.5852270 167.5650774 114.7965857  88.6915068 168.9136063
 119.6559904  88.7514292 164.9359391 121.1401579  87.9953141 165.5807570
 119.8293253  88.9877113 167.4423684 119.8257374  87.2374533 167.6215830
 117.7586078  88.9895210 166.9840000 119.0340000  85.6330000 167.1560000
 115.5530000  91.2530000 175.9530000 115.9910000  90.9310000 174.6350000
 117.5076870  91.0640422 174.5670128 118.1138325  90.1634892 175.4912661
 114.5830000  91.1360000 175.9330000 115.5111500  91.6140745 173.9279185
 115.6824998  89.9028257 174.4219032 117.8237786  92.0769699 174.8380657
 117.8758866  90.8310970 173.5644997 117.6792520  90.3483657 176.3468065
 117.4850000  88.4690000 181.3770000 115.4310000  89.6160000 180.2610000
 115.5419214  90.8491885 181.1559740 114.6668707  88.5308749 181.0057234
 120.0468790  87.9385784 178.7247728 119.4802276  88.0580000 180.1500000
 118.0630000  88.0580000 180.1500000 118.1840000  87.0860000 180.1810000
 117.6591057  87.5091082 180.8772381 117.2653487  88.3184789 182.4357628
 116.5764599  91.2143217 181.1127677 115.2843039  90.5605211 182.1800313
 114.8844407  91.6321457 180.7802770 115.0739448  87.5570218 180.7127150
 113.6115256  88.5852270 180.7310774 114.7965857  88.6915068 182.0796063
 119.6559904  88.7514292 178.1019391 121.1401579  87.9953141 178.7467570
 119.8293253  88.9877113 180.6083684 119.8257374  87.2374533 180.7875830
 117.7586078  88.9895210 180.1500000 119.0340000  85.6330000 180.3220000
 115.5530000  91.2530000 189.1190000 115.9910000  90.9310000 187.8010000
 117.5076870  91.0640422 187.7330128 118.1138325  90.1634892 188.6572661
 114.5830000  91.1360000 189.0990000 115.5111500  91.6140745 187.0939185
 115.6824998  89.9028257 187.5879032 117.8237786  92.0769699 188.0040657
 117.8758866  90.8310970 186.7304997 117.6792520  90.3483657 189.5128065
 117.4850000  88.4690000 194.5420000 115.4310000  89.6160000 193.4260000
 115.5419214  90.8491885 194.3209740 114.6668707  88.5308749 194.1707234
 120.0468790  87.9385784 191.8897728 119.4802276  88.0580000 193.3150000
 118.0630000  88.0580000 193.3150000 118.1840000  87.0860000 193.3460000
 117.6591057  87.5091082 194.0422381 117.2653487  88.3184789 195.6007628
 116.5764599  91.2143217 194.2777677 115.2843039  90.5605211 195.3450313
 114.8844407  91.6321457 193.9452770 115.0739448  87.5570218 193.8777150
 113.6115256  88.5852270 193.8960774 114.7965857  88.6915068 195.2446063
 119.6559904  88.7514292 191.2669391 121.1401579  87.9953141 191.9117570
 119.8293253  88.9877113 193.7733684 119.8257374  87.2374533 193.9525830
 117.7586078  88.9895210 193.3150000 119.0340000  85.6330000 193.4870000
 115.5530000  91.2530000 202.2840000 115.9910000  90.9310000 200.9660000
 117.5076870  91.0640422 200.8980128 118.1138325  90.1634892 201.8222661
 114.5830000  91.1360000 202.2640000 115.5111500  91.6140745 200.2589185
 115.6824998  89.9028257 200.7529032 117.8237786  92.0769699 201.1690657
 117.8758866  90.8310970 199.8954997 117.6792520  90.3483657 202.6778065
 117.4850000  95.7850000  76.0550000 115.4310000  96.9320000  74.9390000
 115.5419214  98.1651885  75.8339740 114.6668707  95.8468749  75.6837234
 120.0468790  95.2545784  73.4027728 119.4802276  95.3740000  74.8280000
 118.0630000  95.3740000  74.8280000 118.1840000  94.4020000  74.8590000
 117.6591057  94.8251082  75.5552381 117.2653487  95.6344789  77.1137628
 116.5764599  98.5303217  75.7907677 115.2843039  97.8765211  76.8580313
 114.8844407  98.9481457  75.4582770 115.0739448  94.8730218  75.3907150
 113.6115256  95.9012270  75.4090774 114.7965857  96.0075068  76.7576063
 119.6559904  96.0674292  72.7799391 121.1401579  95.3113141  73.4247570
 119.8293253  96.3037113  75.2863684 119.8257374  94.5534533  75.4655830
 117.7586078  96.3055210  74.8280000 119.0340000  92.9490000  75.0000000
 115.5530000  98.5690000  83.7970000 115.9910000  98.2470000  82.4790000
 117.5076870  98.3800422  82.4110128 118.1138325  97.4794892  83.3352661
 114.5830000  98.4520000  83.7770000 115.5111500  98.9300745  81.7719185
 115.6824998  97.2188257  82.2659032 117.8237786  99.3929699  82.6820657
 117.8758866  98.1470970  81.4084997 117.6792520  97.6643657  84.1908065
 117.4850000  95.7850000  89.2200000 115.4310000  96.9320000  88.1040000
 115.5419214  98.1651885  88.9989740 114.6668707  95.8468749  88.8487234
 120.0468790  95.2545784  86.5677728 119.4802276  95.3740000  87.9930000
 118.0630000  95.3740000  87.9930000 118.1840000  94.4020000  88.0240000
 117.6591057  94.8251082  88.7202381 117.2653487  95.6344789  90.2787628
 116.5764599  98.5303217  88.9557677 115.2843039  97.8765211  90.0230313
 114.8844407  98.9481457  88.6232770 115.0739448  94.8730218  88.5557150
 113.6115256  95.9012270  88.5740774 114.7965857  96.0075068  89.9226063
 119.6559904  96.0674292  85.9449391 121.1401579  95.3113141  86.5897570
 119.8293253  96.3037113  88.4513684 119.8257374  94.5534533  88.6305830
 117.7586078  96.3055210  87.9930000 119.0340000  92.9490000  88.1650000
 115.5530000  98.5690000  96.9620000 115.9910000  98.2470000  95.6440000
 117.5076870  98.3800422  95.5760128 118.1138325  97.4794892  96.5002661
 114.5830000  98.4520000  96.9420000 115.5111500  98.9300745  94.9369185
 115.6824998  97.2188257  95.4309032 117.8237786  99.3929699  95.8470657
 117.8758866  98.1470970  94.5734997 117.6792520  97.6643657  97.3558065
 117.4850000  95.7850000 102.3850000 115.4310000  96.9320000 101.2690000
 115.5419214  98.1651885 102.1639740 114.6668707  95.8468749 102.0137234
 120.0468790  95.2545784  99.7327728 119.4802276  95.3740000 101.1580000
 118.0630000  95.3740000 101.1580000 118.1840000  94.4020000 101.1890000
 117.6591057  94.8251082 101.8852381 117.2653487  95.6344789 103.4437628
 116.5764599  98.5303217 102.1207677 115.2843039  97.8765211 103.1880313
 114.8844407  98.9481457 101.7882770 115.0739448  94.8730218 101.7207150
 113.6115256  95.9012270 101.7390774 114.7965857  96.0075068 103.0876063
 119.6559904  96.0674292  99.1099391 121.1401579  95.3113141  99.7547570
 119.8293253  96.3037113 101.6163684 119.8257374  94.5534533 101.7955830
 117.7586078  96.3055210 101.1580000 119.0340000  92.9490000 101.3300000
 115.5530000  98.5690000 110.1270000 115.9910000  98.2470000 108.8090000
 117.5076870  98.3800422 108.7410128 118.1138325  97.4794892 109.6652661
 114.5830000  98.4520000 110.1070000 115.5111500  98.9300745 108.1019185
 115.6824998  97.2188257 108.5959032 117.8237786  99.3929699 109.0120657
 117.8758866  98.1470970 107.7384997 117.6792520  97.6643657 110.5208065
 117.4850000  95.7850000 115.5510000 115.4310000  96.9320000 114.4350000
 115.5419214  98.1651885 115.3299740 114.6668707  95.8468749 115.1797234
 120.0468790  95.2545784 112.8987728 119.4802276  95.3740000 114.3240000
 118.0630000  95.3740000 114.3240000 118.1840000  94.4020000 114.3550000
 117.6591057  94.8251082 115.0512381 117.2653487  95.6344789 116.6097628
 116.5764599  98.5303217 115.2867677 115.2843039  97.8765211 116.3540313
 114.8844407  98.9481457 114.9542770 115.0739448  94.8730218 114.8867150
 113.6115256  95.9012270 114.9050774 114.7965857  96.0075068 116.2536063
 119.6559904  96.0674292 112.2759391 121.1401579  95.3113141 112.9207570
 119.8293253  96.3037113 114.7823684 119.8257374  94.5534533 114.9615830
 117.7586078  96.3055210 114.3240000 119.0340000  92.9490000 114.4960000
 115.5530000  98.5690000 123.2930000 115.9910000  98.2470000 121.9750000
 117.5076870  98.3800422 121.9070128 118.1138325  97.4794892 122.8312661
 114.5830000  98.4520000 123.2730000 115.5111500  98.9300745 121.2679185
 115.6824998  97.2188257 121.7619032 117.8237786  99.3929699 122.1780657
 117.8758866  98.1470970 120.9044997 117.6792520  97.6643657 123.6868065
 117.4850000  95.7850000 128.7160000 115.4310000  96.9320000 127.6000000
 115.5419214  98.1651885 128.4949740 114.6668707  95.8468749 128.3447234
 120.0468790  95.2545784 126.0637728 119.4802276  95.3740000 127.4890000
 118.0630000  95.3740000 127.4890000 118.1840000  94.4020000 127.5200000
 117.6591057  94.8251082 128.2162381 117.2653487  95.6344789 129.7747628
 116.5764599  98.5303217 128.4517677 115.2843039  97.8765211 129.5190313
 114.8844407  98.9481457 128.1192770 115.0739448  94.8730218 128.0517150
 113.6115256  95.9012270 128.0700774 114.7965857  96.0075068 129.4186063
 119.6559904  96.0674292 125.4409391 121.1401579  95.3113141 126.0857570
 119.8293253  96.3037113 127.9473684 119.8257374  94.5534533 128.1265830
 117.7586078  96.3055210 127.4890000 119.0340000  92.9490000 127.6610000
 115.5530000  98.5690000 136.4580000 115.9910000  98.2470000 135.1400000
 117.5076870  98.3800422 135.0720128 118.1138325  97.4794892 135.9962661
 114.5830000  98.4520000 136.4380000 115.5111500  98.9300745 134.4329185
 115.6824998  97.2188257 134.9269032 117.8237786  99.3929699 135.3430657
 117.8758866  98.1470970 134.0694997 117.6792520  97.6643657 136.8518065
 117.4850000  95.7850000 141.8810000 115.4310000  96.9320000 140.7650000
 115.5419214  98.1651885 141.6599740 114.6668707  95.8468749 141.5097234
 120.0468790  95.2545784 139.2287728 119.4802276  95.3740000 140.6540000
 118.0630000  95.3740000 140.6540000 118.1840000  94.4020000 140.6850000
 117.6591057  94.8251082 141.3812381 117.2653487  95.6344789 142.9397628
 116.5764599  98.5303217 141.6167677 115.2843039  97.8765211 142.6840313
 114.8844407  98.9481457 141.2842770 115.0739448  94.8730218 141.2167150
 113.6115256  95.9012270 141.2350774 114.7965857  96.0075068 142.5836063
 119.6559904  96.0674292 138.6059391 121.1401579  95.3113141 139.2507570
 119.8293253  96.3037113 141.1123684 119.8257374  94.5534533 141.2915830
 117.7586078  96.3055210 140.6540000 119.0340000  92.9490000 140.8260000
 115.5530000  98.5690000 149.6230000 115.9910000  98.2470000 148.3050000
 117.5076870  98.3800422 148.2370128 118.1138325  97.4794892 149.1612661
 114.5830000  98.4520000 149.6030000 115.5111500  98.9300745 147.5979185
 115.6824998  97.2188257 148.0919032 117.8237786  99.3929699 148.5080657
 117.8758866  98.1470970 147.2344997 117.6792520  97.6643657 150.0168065
 117.4850000  95.7850000 155.0460000 115.4310000  96.9320000 153.9300000
 115.5419214  98.1651885 154.8249740 114.6668707  95.8468749 154.6747234
 120.0468790  95.2545784 152.3937728 119.4802276  95.3740000 153.8190000
 118.0630000  95.3740000 153.8190000 118.1840000  94.4020000 153.8500000
 117.6591057  94.8251082 154.5462381 117.2653487  95.6344789 156.1047628
 116.5764599  98.5303217 154.7817677 115.2843039  97.8765211 155.8490313
 114.8844407  98.9481457 154.4492770 115.0739448  94.8730218 154.3817150
 113.6115256  95.9012270 154.4000774 114.7965857  96.0075068 155.7486063
 119.6559904  96.0674292 151.7709391 121.1401579  95.3113141 152.4157570
 119.8293253  96.3037113 154.2773684 119.8257374  94.5534533 154.4565830
 117.7586078  96.3055210 153.8190000 119.0340000  92.9490000 153.9910000
 115.5530000  98.5690000 162.7880000 115.9910000  98.2470000 161.4700000
 117.5076870  98.3800422 161.4020128 118.1138325  97.4794892 162.3262661
 114.5830000  98.4520000 162.7680000 115.5111500  98.9300745 160.7629185
 115.6824998  97.2188257 161.2569032 117.8237786  99.3929699 161.6730657
 117.8758866  98.1470970 160.3994997 117.6792520  97.6643657 163.1818065
 117.4850000  95.7850000 168.2110000 115.4310000  96.9320000 167.0950000
 115.5419214  98.1651885 167.9899740 114.6668707  95.8468749 167.8397234
 120.0468790  95.2545784 165.5587728 119.4802276  95.3740000 166.9840000
 118.0630000  95.3740000 166.9840000 118.1840000  94.4020000 167.0150000
 117.6591057  94.8251082 167.7112381 117.2653487  95.6344789 169.2697628
 116.5764599  98.5303217 167.9467677 115.2843039  97.8765211 169.0140313
 114.8844407  98.9481457 167.6142770 115.0739448  94.8730218 167.5467150
 113.6115256  95.9012270 167.5650774 114.7965857  96.0075068 168.9136063
 119.6559904  96.0674292 164.9359391 121.1401579  95.3113141 165.5807570
 119.8293253  96.3037113 167.4423684 119.8257374  94.5534533 167.6215830
 117.7586078  96.3055210 166.9840000 119.0340000  92.9490000 167.1560000
 115.5530000  98.5690000 175.9530000 115.9910000  98.2470000 174.6350000
 117.5076870  98.3800422 174.5670128 118.1138325  97.4794892 175.4912661
 114.5830000  98.4520000 175.9330000 115.5111500  98.9300745 173.9279185
 115.6824998  97.2188257 174.4219032 117.8237786  99.3929699 174.8380657
 117.8758866  98.1470970 173.5644997 117.6792520  97.6643657 176.3468065
 117.4850000  95.7850000 181.3770000 115.4310000  96.9320000 180.2610000
 115.5419214  98.1651885 181.1559740 114.6668707  95.8468749 181.0057234
 120.0468790  95.2545784 178.7247728 119.4802276  95.3740000 180.1500000
 118.0630000  95.3740000 180.1500000 118.1840000  94.4020000 180.1810000
 117.6591057  94.8251082 180.8772381 117.2653487  95.6344789 182.4357628
 116.5764599  98.5303217 181.1127677 115.2843039  97.8765211 182.1800313
 114.8844407  98.9481457 180.7802770 115.0739448  94.8730218 180.7127150
 113.6115256  95.9012270 180.7310774 114.7965857  96.0075068 182.0796063
 119.6559904  96.0674292 178.1019391 121.1401579  95.3113141 178.7467570
 119.8293253  96.3037113 180.6083684 119.8257374  94.5534533 180.7875830
 117.7586078  96.3055210 180.1500000 119.0340000  92.9490000 180.3220000
 115.5530000  98.5690000 189.1190000 115.9910000  98.2470000 187.8010000
 117.5076870  98.3800422 187.7330128 118.1138325  97.4794892 188.6572661
 114.5830000  98.4520000 189.0990000 115.5111500  98.9300745 187.0939185
 115.6824998  97.2188257 187.5879032 117.8237786  99.3929699 188.0040657
 117.8758866  98.1470970 186.7304997 117.6792520  97.6643657 189.5128065
 117.4850000  95.7850000 194.5420000 115.4310000  96.9320000 193.4260000
 115.5419214  98.1651885 194.3209740 114.6668707  95.8468749 194.1707234
 120.0468790  95.2545784 191.8897728 119.4802276  95.3740000 193.3150000
 118.0630000  95.3740000 193.3150000 118.1840000  94.4020000 193.3460000
 117.6591057  94.8251082 194.0422381 117.2653487  95.6344789 195.6007628
 116.5764599  98.5303217 194.2777677 115.2843039  97.8765211 195.3450313
 114.8844407  98.9481457 193.9452770 115.0739448  94.8730218 193.8777150
 113.6115256  95.9012270 193.8960774 114.7965857  96.0075068 195.2446063
 119.6559904  96.0674292 191.2669391 121.1401579  95.3113141 191.9117570
 119.8293253  96.3037113 193.7733684 119.8257374  94.5534533 193.9525830
 117.7586078  96.3055210 193.3150000 119.0340000  92.9490000 193.4870000
 115.5530000  98.5690000 202.2840000 115.9910000  98.2470000 200.9660000
 117.5076870  98.3800422 200.8980128 118.1138325  97.4794892 201.8222661
 114.5830000  98.4520000 202.2640000 115.5111500  98.9300745 200.2589185
 115.6824998  97.2188257 200.7529032 117.8237786  99.3929699 201.1690657
 117.8758866  98.1470970 199.8954997 117.6792520  97.6643657 202.6778065
 117.4850000 103.1020000  76.0550000 115.4310000 104.2490000  74.9390000
 115.5419214 105.4821885  75.8339740 114.6668707 103.1638749  75.6837234
 120.0468790 102.5715784  73.4027728 119.4802276 102.6910000  74.8280000
 118.0630000 102.6910000  74.8280000 118.1840000 101.7190000  74.8590000
 117.6591057 102.1421082  75.5552381 117.2653487 102.9514789  77.1137628
 116.5764599 105.8473217  75.7907677 115.2843039 105.1935211  76.8580313
 114.8844407 106.2651457  75.4582770 115.0739448 102.1900218  75.3907150
 113.6115256 103.2182270  75.4090774 114.7965857 103.3245068  76.7576063
 119.6559904 103.3844292  72.7799391 121.1401579 102.6283141  73.4247570
 119.8293253 103.6207113  75.2863684 119.8257374 101.8704533  75.4655830
 117.7586078 103.6225210  74.8280000 119.0340000 100.2660000  75.0000000
 115.5530000 105.8860000  83.7970000 115.9910000 105.5640000  82.4790000
 117.5076870 105.6970422  82.4110128 118.1138325 104.7964892  83.3352661
 114.5830000 105.7690000  83.7770000 115.5111500 106.2470745  81.7719185
 115.6824998 104.5358257  82.2659032 117.8237786 106.7099699  82.6820657
 117.8758866 105.4640970  81.4084997 117.6792520 104.9813657  84.1908065
 117.4850000 103.1020000  89.2200000 115.4310000 104.2490000  88.1040000
 115.5419214 105.4821885  88.9989740 114.6668707 103.1638749  88.8487234
 120.0468790 102.5715784  86.5677728 119.4802276 102.6910000  87.9930000
 118.0630000 102.6910000  87.9930000 118.1840000 101.7190000  88.0240000
 117.6591057 102.1421082  88.7202381 117.2653487 102.9514789  90.2787628
 116.5764599 105.8473217  88.9557677 115.2843039 105.1935211  90.0230313
 114.8844407 106.2651457  88.6232770 115.0739448 102.1900218  88.5557150
 113.6115256 103.2182270  88.5740774 114.7965857 103.3245068  89.9226063
 119.6559904 103.3844292  85.9449391 121.1401579 102.6283141  86.5897570
 119.8293253 103.6207113  88.4513684 119.8257374 101.8704533  88.6305830
 117.7586078 103.6225210  87.9930000 119.0340000 100.2660000  88.1650000
 115.5530000 105.8860000  96.9620000 115.9910000 105.5640000  95.6440000
 117.5076870 105.6970422  95.5760128 118.1138325 104.7964892  96.5002661
 114.5830000 105.7690000  96.9420000 115.5111500 106.2470745  94.9369185
 115.6824998 104.5358257  95.4309032 117.8237786 106.7099699  95.8470657
 117.8758866 105.4640970  94.5734997 117.6792520 104.9813657  97.3558065
 117.4850000 103.1020000 102.3850000 115.4310000 104.2490000 101.2690000
 115.5419214 105.4821885 102.1639740 114.6668707 103.1638749 102.0137234
 120.0468790 102.5715784  99.7327728 119.4802276 102.6910000 101.1580000
 118.0630000 102.6910000 101.1580000 118.1840000 101.7190000 101.1890000
 117.6591057 102.1421082 101.8852381 117.2653487 102.9514789 103.4437628
 116.5764599 105.8473217 102.1207677 115.2843039 105.1935211 103.1880313
 114.8844407 106.2651457 101.7882770 115.0739448 102.1900218 101.7207150
 113.6115256 103.2182270 101.7390774 114.7965857 103.3245068 103.0876063
 119.6559904 103.3844292  99.1099391 121.1401579 102.6283141  99.7547570
 119.8293253 103.6207113 101.6163684 119.8257374 101.8704533 101.7955830
 117.7586078 103.6225210 101.1580000 119.0340000 100.2660000 101.3300000
 115.5530000 105.8860000 110.1270000 115.9910000 105.5640000 108.8090000
 117.5076870 105.6970422 108.7410128 118.1138325 104.7964892 109.6652661
 114.5830000 105.7690000 110.1070000 115.5111500 106.2470745 108.1019185
 115.6824998 104.5358257 108.5959032 117.8237786 106.7099699 109.0120657
 117.8758866 105.4640970 107.7384997 117.6792520 104.9813657 110.5208065
 117.4850000 103.1020000 115.5510000 115.4310000 104.2490000 114.4350000
 115.5419214 105.4821885 115.3299740 114.6668707 103.1638749 115.1797234
 120.0468790 102.5715784 112.8987728 119.4802276 102.6910000 114.3240000
 118.0630000 102.6910000 114.3240000 118.1840000 101.7190000 114.3550000
 117.6591057 102.1421082 115.0512381 117.2653487 102.9514789 116.6097628
 116.5764599 105.8473217 115.2867677 115.2843039 105.1935211 116.3540313
 114.8844407 106.2651457 114.9542770 115.0739448 102.1900218 114.8867150
 113.6115256 103.2182270 114.9050774 114.7965857 103.3245068 116.2536063
 119.6559904 103.3844292 112.2759391 121.1401579 102.6283141 112.9207570
 119.8293253 103.6207113 114.7823684 119.8257374 101.8704533 114.9615830
 117.7586078 103.6225210 114.3240000 119.0340000 100.2660000 114.4960000
 115.5530000 105.8860000 123.2930000 115.9910000 105.5640000 121.9750000
 117.5076870 105.6970422 121.9070128 118.1138325 104.7964892 122.8312661
 114.5830000 105.7690000 123.2730000 115.5111500 106.2470745 121.2679185
 115.6824998 104.5358257 121.7619032 117.8237786 106.7099699 122.1780657
 117.8758866 105.4640970 120.9044997 117.6792520 104.9813657 123.6868065
 117.4850000 103.1020000 128.7160000 115.4310000 104.2490000 127.6000000
 115.5419214 105.4821885 128.4949740 114.6668707 103.1638749 128.3447234
 120.0468790 102.5715784 126.0637728 119.4802276 102.6910000 127.4890000
 118.0630000 102.6910000 127.4890000 118.1840000 101.7190000 127.5200000
 117.6591057 102.1421082 128.2162381 117.2653487 102.9514789 129.7747628
 116.5764599 105.8473217 128.4517677 115.2843039 105.1935211 129.5190313
 114.8844407 106.2651457 128.1192770 115.0739448 102.1900218 128.0517150
 113.6115256 103.2182270 128.0700774 114.7965857 103.3245068 129.4186063
 119.6559904 103.3844292 125.4409391 121.1401579 102.6283141 126.0857570
 119.8293253 103.6207113 127.9473684 119.8257374 101.8704533 128.1265830
 117.7586078 103.6225210 127.4890000 119.0340000 100.2660000 127.6610000
 115.5530000 105.8860000 136.4580000 115.9910000 105.5640000 135.1400000
 117.5076870 105.6970422 135.0720128 118.1138325 104.7964892 135.9962661
 114.5830000 105.7690000 136.4380000 115.5111500 106.2470745 134.4329185
 115.6824998 104.5358257 134.9269032 117.8237786 106.7099699 135.3430657
 117.8758866 105.4640970 134.0694997 117.6792520 104.9813657 136.8518065
 117.4850000 103.1020000 141.8810000 115.4310000 104.2490000 140.7650000
 115.5419214 105.4821885 141.6599740 114.6668707 103.1638749 141.5097234
 120.0468790 102.5715784 139.2287728 119.4802276 102.6910000 140.6540000
 118.0630000 102.6910000 140.6540000 118.1840000 101.7190000 140.6850000
 117.6591057 102.1421082 141.3812381 117.2653487 102.9514789 142.9397628
 116.5764599 105.8473217 141.6167677 115.2843039 105.1935211 142.6840313
 114.8844407 106.2651457 141.2842770 115.0739448 102.1900218 141.2167150
 113.6115256 103.2182270 141.2350774 114.7965857 103.3245068 142.5836063
 119.6559904 103.3844292 138.6059391 121.1401579 102.6283141 139.2507570
 119.8293253 103.6207113 141.1123684 119.8257374 101.8704533 141.2915830
 117.7586078 103.6225210 140.6540000 119.0340000 100.2660000 140.8260000
 115.5530000 105.8860000 149.6230000 115.9910000 105.5640000 148.3050000
 117.5076870 105.6970422 148.2370128 118.1138325 104.7964892 149.1612661
 114.5830000 105.7690000 149.6030000 115.5111500 106.2470745 147.5979185
 115.6824998 104.5358257 148.0919032 117.8237786 106.7099699 148.5080657
 117.8758866 105.4640970 147.2344997 117.6792520 104.9813657 150.0168065
 117.4850000 103.1020000 155.0460000 115.4310000 104.2490000 153.9300000
 115.5419214 105.4821885 154.8249740 114.6668707 103.1638749 154.6747234
 120.0468790 102.5715784 152.3937728 119.4802276 102.6910000 153.8190000
 118.0630000 102.6910000 153.8190000 118.1840000 101.7190000 153.8500000
 117.6591057 102.1421082 154.5462381 117.2653487 102.9514789 156.1047628
 116.5764599 105.8473217 154.7817677 115.2843039 105.1935211 155.8490313
 114.8844407 106.2651457 154.4492770 115.0739448 102.1900218 154.3817150
 113.6115256 103.2182270 154.4000774 114.7965857 103.3245068 155.7486063
 119.6559904 103.3844292 151.7709391 121.1401579 102.6283141 152.4157570
 119.8293253 103.6207113 154.2773684 119.8257374 101.8704533 154.4565830
 117.7586078 103.6225210 153.8190000 119.0340000 100.2660000 153.9910000
 115.5530000 105.8860000 162.7880000 115.9910000 105.5640000 161.4700000
 117.5076870 105.6970422 161.4020128 118.1138325 104.7964892 162.3262661
 114.5830000 105.7690000 162.7680000 115.5111500 106.2470745 160.7629185
 115.6824998 104.5358257 161.2569032 117.8237786 106.7099699 161.6730657
 117.8758866 105.4640970 160.3994997 117.6792520 104.9813657 163.1818065
 117.4850000 103.1020000 168.2110000 115.4310000 104.2490000 167.0950000
 115.5419214 105.4821885 167.9899740 114.6668707 103.1638749 167.8397234
 120.0468790 102.5715784 165.5587728 119.4802276 102.6910000 166.9840000
 118.0630000 102.6910000 166.9840000 118.1840000 101.7190000 167.0150000
 117.6591057 102.1421082 167.7112381 117.2653487 102.9514789 169.2697628
 116.5764599 105.8473217 167.9467677 115.2843039 105.1935211 169.0140313
 114.8844407 106.2651457 167.6142770 115.0739448 102.1900218 167.5467150
 113.6115256 103.2182270 167.5650774 114.7965857 103.3245068 168.9136063
 119.6559904 103.3844292 164.9359391 121.1401579 102.6283141 165.5807570
 119.8293253 103.6207113 167.4423684 119.8257374 101.8704533 167.6215830
 117.7586078 103.6225210 166.9840000 119.0340000 100.2660000 167.1560000
 115.5530000 105.8860000 175.9530000 115.9910000 105.5640000 174.6350000
 117.5076870 105.6970422 174.5670128 118.1138325 104.7964892 175.4912661
 114.5830000 105.7690000 175.9330000 115.5111500 106.2470745 173.9279185
 115.6824998 104.5358257 174.4219032 117.8237786 106.7099699 174.8380657
 117.8758866 105.4640970 173.5644997 117.6792520 104.9813657 176.3468065
 117.4850000 103.1020000 181.3770000 115.4310000 104.2490000 180.2610000
 115.5419214 105.4821885 181.1559740 114.6668707 103.1638749 181.0057234
 120.0468790 102.5715784 178.7247728 119.4802276 102.6910000 180.1500000
 118.0630000 102.6910000 180.1500000 118.1840000 101.7190000 180.1810000
 117.6591057 102.1421082 180.8772381 117.2653487 102.9514789 182.4357628
 116.5764599 105.8473217 181.1127677 115.2843039 105.1935211 182.1800313
 114.8844407 106.2651457 180.7802770 115.0739448 102.1900218 180.7127150
 113.6115256 103.2182270 180.7310774 114.7965857 103.3245068 182.0796063
 119.6559904 103.3844292 178.1019391 121.1401579 102.6283141 178.7467570
 119.8293253 103.6207113 180.6083684 119.8257374 101.8704533 180.7875830
 117.7586078 103.6225210 180.1500000 119.0340000 100.2660000 180.3220000
 115.5530000 105.8860000 189.1190000 115.9910000 105.5640000 187.8010000
 117.5076870 105.6970422 187.7330128 118.1138325 104.7964892 188.6572661
 114.5830000 105.7690000 189.0990000 115.5111500 106.2470745 187.0939185
 115.6824998 104.5358257 187.5879032 117.8237786 106.7099699 188.0040657
 117.8758866 105.4640970 186.7304997 117.6792520 104.9813657 189.5128065
 117.4850000 103.1020000 194.5420000 115.4310000 104.2490000 193.4260000
 115.5419214 105.4821885 194.3209740 114.6668707 103.1638749 194.1707234
 120.0468790 102.5715784 191.8897728 119.4802276 102.6910000 193.3150000
 118.0630000 102.6910000 193.3150000 118.1840000 101.7190000 193.3460000
 117.6591057 102.1421082 194.0422381 117.2653487 102.9514789 195.6007628
 116.5764599 105.8473217 194.2777677 115.2843039 105.1935211 195.3450313
 114.8844407 106.2651457 193.9452770 115.0739448 102.1900218 193.8777150
 113.6115256 103.2182270 193.8960774 114.7965857 103.3245068 195.2446063
 119.6559904 103.3844292 191.2669391 121.1401579 102.6283141 191.9117570
 119.8293253 103.6207113 193.7733684 119.8257374 101.8704533 193.9525830
 117.7586078 103.6225210 193.3150000 119.0340000 100.2660000 193.4870000
 115.5530000 105.8860000 202.2840000 115.9910000 105.5640000 200.9660000
 117.5076870 105.6970422 200.8980128 118.1138325 104.7964892 201.8222661
 114.5830000 105.7690000 202.2640000 115.5111500 106.2470745 200.2589185
 115.6824998 104.5358257 200.7529032 117.8237786 106.7099699 201.1690657
 117.8758866 105.4640970 199.8954997 117.6792520 104.9813657 202.6778065
 117.4850000 110.4180000  76.0550000 115.4310000 111.5650000  74.9390000
 115.5419214 112.7981885  75.8339740 114.6668707 110.4798749  75.6837234
 120.0468790 109.8875784  73.4027728 119.4802276 110.0070000  74.8280000
 118.0630000 110.0070000  74.8280000 118.1840000 109.0350000  74.8590000
 117.6591057 109.4581082  75.5552381 117.2653487 110.2674789  77.1137628
 116.5764599 113.1633217  75.7907677 115.2843039 112.5095211  76.8580313
 114.8844407 113.5811457  75.4582770 115.0739448 109.5060218  75.3907150
 113.6115256 110.5342270  75.4090774 114.7965857 110.6405068  76.7576063
 119.6559904 110.7004292  72.7799391 121.1401579 109.9443141  73.4247570
 119.8293253 110.9367113  75.2863684 119.8257374 109.1864533  75.4655830
 117.7586078 110.9385210  74.8280000 119.0340000 107.5820000  75.0000000
 115.5530000 113.2020000  83.7970000 115.9910000 112.8800000  82.4790000
 117.5076870 113.0130422  82.4110128 118.1138325 112.1124892  83.3352661
 114.5830000 113.0850000  83.7770000 115.5111500 113.5630745  81.7719185
 115.6824998 111.8518257  82.2659032 117.8237786 114.0259699  82.6820657
 117.8758866 112.7800970  81.4084997 117.6792520 112.2973657  84.1908065
 117.4850000 110.4180000  89.2200000 115.4310000 111.5650000  88.1040000
 115.5419214 112.7981885  88.9989740 114.6668707 110.4798749  88.8487234
 120.0468790 109.8875784  86.5677728 119.4802276 110.0070000  87.9930000
 118.0630000 110.0070000  87.9930000 118.1840000 109.0350000  88.0240000
 117.6591057 109.4581082  88.7202381 117.2653487 110.2674789  90.2787628
 116.5764599 113.1633217  88.9557677 115.2843039 112.5095211  90.0230313
 114.8844407 113.5811457  88.6232770 115.0739448 109.5060218  88.5557150
 113.6115256 110.5342270  88.5740774 114.7965857 110.6405068  89.9226063
 119.6559904 110.7004292  85.9449391 121.1401579 109.9443141  86.5897570
 119.8293253 110.9367113  88.4513684 119.8257374 109.1864533  88.6305830
 117.7586078 110.9385210  87.9930000 119.0340000 107.5820000  88.1650000
 115.5530000 113.2020000  96.9620000 115.9910000 112.8800000  95.6440000
 117.5076870 113.0130422  95.5760128 118.1138325 112.1124892  96.5002661
 114.5830000 113.0850000  96.9420000 115.5111500 113.5630745  94.9369185
 115.6824998 111.8518257  95.4309032 117.8237786 114.0259699  95.8470657
 117.8758866 112.7800970  94.5734997 117.6792520 112.2973657  97.3558065
 117.4850000 110.4180000 102.3850000 115.4310000 111.5650000 101.2690000
 115.5419214 112.7981885 102.1639740 114.6668707 110.4798749 102.0137234
 120.0468790 109.8875784  99.7327728 119.4802276 110.0070000 101.1580000
 118.0630000 110.0070000 101.1580000 118.1840000 109.0350000 101.1890000
 117.6591057 109.4581082 101.8852381 117.2653487 110.2674789 103.4437628
 116.5764599 113.1633217 102.1207677 115.2843039 112.5095211 103.1880313
 114.8844407 113.5811457 101.7882770 115.0739448 109.5060218 101.7207150
 113.6115256 110.5342270 101.7390774 114.7965857 110.6405068 103.0876063
 119.6559904 110.7004292  99.1099391 121.1401579 109.9443141  99.7547570
 119.8293253 110.9367113 101.6163684 119.8257374 109.1864533 101.7955830
 117.7586078 110.9385210 101.1580000 119.0340000 107.5820000 101.3300000
 115.5530000 113.2020000 110.1270000 115.9910000 112.8800000 108.8090000
 117.5076870 113.0130422 108.7410128 118.1138325 112.1124892 109.6652661
 114.5830000 113.0850000 110.1070000 115.5111500 113.5630745 108.1019185
 115.6824998 111.8518257 108.5959032 117.8237786 114.0259699 109.0120657
 117.8758866 112.7800970 107.7384997 117.6792520 112.2973657 110.5208065
 117.4850000 110.4180000 115.5510000 115.4310000 111.5650000 114.4350000
 115.5419214 112.7981885 115.3299740 114.6668707 110.4798749 115.1797234
 120.0468790 109.8875784 112.8987728 119.4802276 110.0070000 114.3240000
 118.0630000 110.0070000 114.3240000 118.1840000 109.0350000 114.3550000
 117.6591057 109.4581082 115.0512381 117.2653487 110.2674789 116.6097628
 116.5764599 113.1633217 115.2867677 115.2843039 112.5095211 116.3540313
 114.8844407 113.5811457 114.9542770 115.0739448 109.5060218 114.8867150
 113.6115256 110.5342270 114.9050774 114.7965857 110.6405068 116.2536063
 119.6559904 110.7004292 112.2759391 121.1401579 109.9443141 112.9207570
 119.8293253 110.9367113 114.7823684 119.8257374 109.1864533 114.9615830
 117.7586078 110.9385210 114.3240000 119.0340000 107.5820000 114.4960000
 115.5530000 113.2020000 123.2930000 115.9910000 112.8800000 121.9750000
 117.5076870 113.0130422 121.9070128 118.1138325 112.1124892 122.8312661
 114.5830000 113.0850000 123.2730000 115.5111500 113.5630745 121.2679185
 115.6824998 111.8518257 121.7619032 117.8237786 114.0259699 122.1780657
 117.8758866 112.7800970 120.9044997 117.6792520 112.2973657 123.6868065
 117.4850000 110.4180000 128.7160000 115.4310000 111.5650000 127.6000000
 115.5419214 112.7981885 128.4949740 114.6668707 110.4798749 128.3447234
 120.0468790 109.8875784 126.0637728 119.4802276 110.0070000 127.4890000
 118.0630000 110.0070000 127.4890000 118.1840000 109.0350000 127.5200000
 117.6591057 109.4581082 128.2162381 117.2653487 110.2674789 129.7747628
 116.5764599 113.1633217 128.4517677 115.2843039 112.5095211 129.5190313
 114.8844407 113.5811457 128.1192770 115.0739448 109.5060218 128.0517150
 113.6115256 110.5342270 128.0700774 114.7965857 110.6405068 129.4186063
 119.6559904 110.7004292 125.4409391 121.1401579 109.9443141 126.0857570
 119.8293253 110.9367113 127.9473684 119.8257374 109.1864533 128.1265830
 117.7586078 110.9385210 127.4890000 119.0340000 107.5820000 127.6610000
 115.5530000 113.2020000 136.4580000 115.9910000 112.8800000 135.1400000
 117.5076870 113.0130422 135.0720128 118.1138325 112.1124892 135.9962661
 114.5830000 113.0850000 136.4380000 115.5111500 113.5630745 134.4329185
 115.6824998 111.8518257 134.9269032 117.8237786 114.0259699 135.3430657
 117.8758866 112.7800970 134.0694997 117.6792520 112.2973657 136.8518065
 117.4850000 110.4180000 141.8810000 115.4310000 111.5650000 140.7650000
 115.5419214 112.7981885 141.6599740 114.6668707 110.4798749 141.5097234
 120.0468790 109.8875784 139.2287728 119.4802276 110.0070000 140.6540000
 118.0630000 110.0070000 140.6540000 118.1840000 109.0350000 140.6850000
 117.6591057 109.4581082 141.3812381 117.2653487 110.2674789 142.9397628
 116.5764599 113.1633217 141.6167677 115.2843039 112.5095211 142.6840313
 114.8844407 113.5811457 141.2842770 115.0739448 109.5060218 141.2167150
 113.6115256 110.5342270 141.2350774 114.7965857 110.6405068 142.5836063
 119.6559904 110.7004292 138.6059391 121.1401579 109.9443141 139.2507570
 119.8293253 110.9367113 141.1123684 119.8257374 109.1864533 141.2915830
 117.7586078 110.9385210 140.6540000 119.0340000 107.5820000 140.8260000
 115.5530000 113.2020000 149.6230000 115.9910000 112.8800000 148.3050000
 117.5076870 113.0130422 148.2370128 118.1138325 112.1124892 149.1612661
 114.5830000 113.0850000 149.6030000 115.5111500 113.5630745 147.5979185
 115.6824998 111.8518257 148.0919032 117.8237786 114.0259699 148.5080657
 117.8758866 112.7800970 147.2344997 117.6792520 112.2973657 150.0168065
 117.4850000 110.4180000 155.0460000 115.4310000 111.5650000 153.9300000
 115.5419214 112.7981885 154.8249740 114.6668707 110.4798749 154.6747234
 120.0468790 109.8875784 152.3937728 119.4802276 110.0070000 153.8190000
 118.0630000 110.0070000 153.8190000 118.1840000 109.0350000 153.8500000
 117.6591057 109.4581082 154.5462381 117.2653487 110.2674789 156.1047628
 116.5764599 113.1633217 154.7817677 115.2843039 112.5095211 155.8490313
 114.8844407 113.5811457 154.4492770 115.0739448 109.5060218 154.3817150
 113.6115256 110.5342270 154.4000774 114.7965857 110.6405068 155.7486063
 119.6559904 110.7004292 151.7709391 121.1401579 109.9443141 152.4157570
 119.8293253 110.9367113 154.2773684 119.8257374 109.1864533 154.4565830
 117.7586078 110.9385210 153.8190000 119.0340000 107.5820000 153.9910000
 115.5530000 113.2020000 162.7880000 115.9910000 112.8800000 161.4700000
 117.5076870 113.0130422 161.4020128 118.1138325 112.1124892 162.3262661
 114.5830000 113.0850000 162.7680000 115.5111500 113.5630745 160.7629185
 115.6824998 111.8518257 161.2569032 117.8237786 114.0259699 161.6730657
 117.8758866 112.7800970 160.3994997 117.6792520 112.2973657 163.1818065
 117.4850000 110.4180000 168.2110000 115.4310000 111.5650000 167.0950000
 115.5419214 112.7981885 167.9899740 114.6668707 110.4798749 167.8397234
 120.0468790 109.8875784 165.5587728 119.4802276 110.0070000 166.9840000
 118.0630000 110.0070000 166.9840000 118.1840000 109.0350000 167.0150000
 117.6591057 109.4581082 167.7112381 117.2653487 110.2674789 169.2697628
 116.5764599 113.1633217 167.9467677 115.2843039 112.5095211 169.0140313
 114.8844407 113.5811457 167.6142770 115.0739448 109.5060218 167.5467150
 113.6115256 110.5342270 167.5650774 114.7965857 110.6405068 168.9136063
 119.6559904 110.7004292 164.9359391 121.1401579 109.9443141 165.5807570
 119.8293253 110.9367113 167.4423684 119.8257374 109.1864533 167.6215830
 117.7586078 110.9385210 166.9840000 119.0340000 107.5820000 167.1560000
 115.5530000 113.2020000 175.9530000 115.9910000 112.8800000 174.6350000
 117.5076870 113.0130422 174.5670128 118.1138325 112.1124892 175.4912661
 114.5830000 113.0850000 175.9330000 115.5111500 113.5630745 173.9279185
 115.6824998 111.8518257 174.4219032 117.8237786 114.0259699 174.8380657
 117.8758866 112.7800970 173.5644997 117.6792520 112.2973657 176.3468065
 117.4850000 110.4180000 181.3770000 115.4310000 111.5650000 180.2610000
 115.5419214 112.7981885 181.1559740 114.6668707 110.4798749 181.0057234
 120.0468790 109.8875784 178.7247728 119.4802276 110.0070000 180.1500000
 118.0630000 110.0070000 180.1500000 118.1840000 109.0350000 180.1810000
 117.6591057 109.4581082 180.8772381 117.2653487 110.2674789 182.4357628
 116.5764599 113.1633217 181.1127677 115.2843039 112.5095211 182.1800313
 114.8844407 113.5811457 180.7802770 115.0739448 109.5060218 180.7127150
 113.6115256 110.5342270 180.7310774 114.7965857 110.6405068 182.0796063
 119.6559904 110.7004292 178.1019391 121.1401579 109.9443141 178.7467570
 119.8293253 110.9367113 180.6083684 119.8257374 109.1864533 180.7875830
 117.7586078 110.9385210 180.1500000 119.0340000 107.5820000 180.3220000
 115.5530000 113.2020000 189.1190000 115.9910000 112.8800000 187.8010000
 117.5076870 113.0130422 187.7330128 118.1138325 112.1124892 188.6572661
 114.5830000 113.0850000 189.0990000 115.5111500 113.5630745 187.0939185
 115.6824998 111.8518257 187.5879032 117.8237786 114.0259699 188.0040657
 117.8758866 112.7800970 186.7304997 117.6792520 112.2973657 189.5128065
 117.4850000 110.4180000 194.5420000 115.4310000 111.5650000 193.4260000
 115.5419214 112.7981885 194.3209740 114.6668707 110.4798749 194.1707234
 120.0468790 109.8875784 191.8897728 119.4802276 110.0070000 193.3150000
 118.0630000 110.0070000 193.3150000 118.1840000 109.0350000 193.3460000
 117.6591057 109.4581082 194.0422381 117.2653487 110.2674789 195.6007628
 116.5764599 113.1633217 194.2777677 115.2843039 112.5095211 195.3450313
 114.8844407 113.5811457 193.9452770 115.0739448 109.5060218 193.8777150
 113.6115256 110.5342270 193.8960774 114.7965857 110.6405068 195.2446063
 119.6559904 110.7004292 191.2669391 121.1401579 109.9443141 191.9117570
 119.8293253 110.9367113 193.7733684 119.8257374 109.1864533 193.9525830
 117.7586078 110.9385210 193.3150000 119.0340000 107.5820000 193.4870000
 115.5530000 113.2020000 202.2840000 115.9910000 112.8800000 200.9660000
 117.5076870 113.0130422 200.8980128 118.1138325 112.1124892 201.8222661
 114.5830000 113.0850000 202.2640000 115.5111500 113.5630745 200.2589185
 115.6824998 111.8518257 200.7529032 117.8237786 114.0259699 201.1690657
 117.8758866 112.7800970 199.8954997 117.6792520 112.2973657 202.6778065
 117.4850000 117.7340000  76.0550000 115.4310000 118.8810000  74.9390000
 115.5419214 120.1141885  75.8339740 114.6668707 117.7958749  75.6837234
 120.0468790 117.2035784  73.4027728 119.4802276 117.3230000  74.8280000
 118.0630000 117.3230000  74.8280000 118.1840000 116.3510000  74.8590000
 117.6591057 116.7741082  75.5552381 117.2653487 117.5834789  77.1137628
 116.5764599 120.4793217  75.7907677 115.2843039 119.8255211  76.8580313
 114.8844407 120.8971457  75.4582770 115.0739448 116.8220218  75.3907150
 113.6115256 117.8502270  75.4090774 114.7965857 117.9565068  76.7576063
 119.6559904 118.0164292  72.7799391 121.1401579 117.2603141  73.4247570
 119.8293253 118.2527113  75.2863684 119.8257374 116.5024533  75.4655830
 117.7586078 118.2545210  74.8280000 119.0340000 114.8980000  75.0000000
 115.5530000 120.5180000  83.7970000 115.9910000 120.1960000  82.4790000
 117.5076870 120.3290422  82.4110128 118.1138325 119.4284892  83.3352661
 114.5830000 120.4010000  83.7770000 115.5111500 120.8790745  81.7719185
 115.6824998 119.1678257  82.2659032 117.8237786 121.3419699  82.6820657
 117.8758866 120.0960970  81.4084997 117.6792520 119.6133657  84.1908065
 117.4850000 117.7340000  89.2200000 115.4310000 118.8810000  88.1040000
 115.5419214 120.1141885  88.9989740 114.6668707 117.7958749  88.8487234
 120.0468790 117.2035784  86.5677728 119.4802276 117.3230000  87.9930000
 118.0630000 117.3230000  87.9930000 118.1840000 116.3510000  88.0240000
 117.6591057 116.7741082  88.7202381 117.2653487 117.5834789  90.2787628
 116.5764599 120.4793217  88.9557677 115.2843039 119.8255211  90.0230313
 114.8844407 120.8971457  88.6232770 115.0739448 116.8220218  88.5557150
 113.6115256 117.8502270  88.5740774 114.7965857 117.9565068  89.9226063
 119.6559904 118.0164292  85.9449391 121.1401579 117.2603141  86.5897570
 119.8293253 118.2527113  88.4513684 119.8257374 116.5024533  88.6305830
 117.7586078 118.2545210  87.9930000 119.0340000 114.8980000  88.1650000
 115.5530000 120.5180000  96.9620000 115.9910000 120.1960000  95.6440000
 117.5076870 120.3290422  95.5760128 118.1138325 119.4284892  96.5002661
 114.5830000 120.4010000  96.9420000 115.5111500 120.8790745  94.9369185
 115.6824998 119.1678257  95.4309032 117.8237786 121.3419699  95.8470657
 117.8758866 120.0960970  94.5734997 117.6792520 119.6133657  97.3558065
 117.4850000 117.7340000 102.3850000 115.4310000 118.8810000 101.2690000
 115.5419214 120.1141885 102.1639740 114.6668707 117.7958749 102.0137234
 120.0468790 117.2035784  99.7327728 119.4802276 117.3230000 101.1580000
 118.0630000 117.3230000 101.1580000 118.1840000 116.3510000 101.1890000
 117.6591057 116.7741082 101.8852381 117.2653487 117.5834789 103.4437628
 116.5764599 120.4793217 102.1207677 115.2843039 119.8255211 103.1880313
 114.8844407 120.8971457 101.7882770 115.0739448 116.8220218 101.7207150
 113.6115256 117.8502270 101.7390774 114.7965857 117.9565068 103.0876063
 119.6559904 118.0164292  99.1099391 121.1401579 117.2603141  99.7547570
 119.8293253 118.2527113 101.6163684 119.8257374 116.5024533 101.7955830
 117.7586078 118.2545210 101.1580000 119.0340000 114.8980000 101.3300000
 115.5530000 120.5180000 110.1270000 115.9910000 120.1960000 108.8090000
 117.5076870 120.3290422 108.7410128 118.1138325 119.4284892 109.6652661
 114.5830000 120.4010000 110.1070000 115.5111500 120.8790745 108.1019185
 115.6824998 119.1678257 108.5959032 117.8237786 121.3419699 109.0120657
 117.8758866 120.0960970 107.7384997 117.6792520 119.6133657 110.5208065
 117.4850000 117.7340000 115.5510000 115.4310000 118.8810000 114.4350000
 115.5419214 120.1141885 115.3299740 114.6668707 117.7958749 115.1797234
 120.0468790 117.2035784 112.8987728 119.4802276 117.3230000 114.3240000
 118.0630000 117.3230000 114.3240000 118.1840000 116.3510000 114.3550000
 117.6591057 116.7741082 115.0512381 117.2653487 117.5834789 116.6097628
 116.5764599 120.4793217 115.2867677 115.2843039 119.8255211 116.3540313
 114.8844407 120.8971457 114.9542770 115.0739448 116.8220218 114.8867150
 113.6115256 117.8502270 114.9050774 114.7965857 117.9565068 116.2536063
 119.6559904 118.0164292 112.2759391 121.1401579 117.2603141 112.9207570
 119.8293253 118.2527113 114.7823684 119.8257374 116.5024533 114.9615830
 117.7586078 118.2545210 114.3240000 119.0340000 114.8980000 114.4960000
 115.5530000 120.5180000 123.2930000 115.9910000 120.1960000 121.9750000
 117.5076870 120.3290422 121.9070128 118.1138325 119.4284892 122.8312661
 114.5830000 120.4010000 123.2730000 115.5111500 120.8790745 121.2679185
 115.6824998 119.1678257 121.7619032 117.8237786 121.3419699 122.1780657
 117.8758866 120.0960970 120.9044997 117.6792520 119.6133657 123.6868065
 117.4850000 117.7340000 128.7160000 115.4310000 118.8810000 127.6000000
 115.5419214 120.1141885 128.4949740 114.6668707 117.7958749 128.3447234
 120.0468790 117.2035784 126.0637728 119.4802276 117.3230000 127.4890000
 118.0630000 117.3230000 127.4890000 118.1840000 116.3510000 127.5200000
 117.6591057 116.7741082 128.2162381 117.2653487 117.5834789 129.7747628
 116.5764599 120.4793217 128.4517677 115.2843039 119.8255211 129.5190313
 114.8844407 120.8971457 128.1192770 115.0739448 116.8220218 128.0517150
 113.6115256 117.8502270 128.0700774 114.7965857 117.9565068 129.4186063
 119.6559904 118.0164292 125.4409391 121.1401579 117.2603141 126.0857570
 119.8293253 118.2527113 127.9473684 119.8257374 116.5024533 128.1265830
 117.7586078 118.2545210 127.4890000 119.0340000 114.8980000 127.6610000
 115.5530000 120.5180000 136.4580000 115.9910000 120.1960000 135.1400000
 117.5076870 120.3290422 135.0720128 118.1138325 119.4284892 135.9962661
 114.5830000 120.4010000 136.4380000 115.5111500 120.8790745 134.4329185
 115.6824998 119.1678257 134.9269032 117.8237786 121.3419699 135.3430657
 117.8758866 120.0960970 134.0694997 117.6792520 119.6133657 136.8518065
 117.4850000 117.7340000 141.8810000 115.4310000 118.8810000 140.7650000
 115.5419214 120.1141885 141.6599740 114.6668707 117.7958749 141.5097234
 120.0468790 117.2035784 139.2287728 119.4802276 117.3230000 140.6540000
 118.0630000 117.3230000 140.6540000 118.1840000 116.3510000 140.6850000
 117.6591057 116.7741082 141.3812381 117.2653487 117.5834789 142.9397628
 116.5764599 120.4793217 141.6167677 115.2843039 119.8255211 142.6840313
 114.8844407 120.8971457 141.2842770 115.0739448 116.8220218 141.2167150
 113.6115256 117.8502270 141.2350774 114.7965857 117.9565068 142.5836063
 119.6559904 118.0164292 138.6059391 121.1401579 117.2603141 139.2507570
 119.8293253 118.2527113 141.1123684 119.8257374 116.5024533 141.2915830
 117.7586078 118.2545210 140.6540000 119.0340000 114.8980000 140.8260000
 115.5530000 120.5180000 149.6230000 115.9910000 120.1960000 148.3050000
 117.5076870 120.3290422 148.2370128 118.1138325 119.4284892 149.1612661
 114.5830000 120.4010000 149.6030000 115.5111500 120.8790745 147.5979185
 115.6824998 119.1678257 148.0919032 117.8237786 121.3419699 148.5080657
 117.8758866 120.0960970 147.2344997 117.6792520 119.6133657 150.0168065
 117.4850000 117.7340000 155.0460000 115.4310000 118.8810000 153.9300000
 115.5419214 120.1141885 154.8249740 114.6668707 117.7958749 154.6747234
 120.0468790 117.2035784 152.3937728 119.4802276 117.3230000 153.8190000
 118.0630000 117.3230000 153.8190000 118.1840000 116.3510000 153.8500000
 117.6591057 116.7741082 154.5462381 117.2653487 117.5834789 156.1047628
 116.5764599 120.4793217 154.7817677 115.2843039 119.8255211 155.8490313
 114.8844407 120.8971457 154.4492770 115.0739448 116.8220218 154.3817150
 113.6115256 117.8502270 154.4000774 114.7965857 117.9565068 155.7486063
 119.6559904 118.0164292 151.7709391 121.1401579 117.2603141 152.4157570
 119.8293253 118.2527113 154.2773684 119.8257374 116.5024533 154.4565830
 117.7586078 118.2545210 153.8190000 119.0340000 114.8980000 153.9910000
 115.5530000 120.5180000 162.7880000 115.9910000 120.1960000 161.4700000
 117.5076870 120.3290422 161.4020128 118.1138325 119.4284892 162.3262661
 114.5830000 120.4010000 162.7680000 115.5111500 120.8790745 160.7629185
 115.6824998 119.1678257 161.2569032 117.8237786 121.3419699 161.6730657
 117.8758866 120.0960970 160.3994997 117.6792520 119.6133657 163.1818065
 117.4850000 117.7340000 168.2110000 115.4310000 118.8810000 167.0950000
 115.5419214 120.1141885 167.9899740 114.6668707 117.7958749 167.8397234
 120.0468790 117.2035784 165.5587728 119.4802276 117.3230000 166.9840000
 118.0630000 117.3230000 166.9840000 118.1840000 116.3510000 167.0150000
 117.6591057 116.7741082 167.7112381 117.2653487 117.5834789 169.2697628
 116.5764599 120.4793217 167.9467677 115.2843039 119.8255211 169.0140313
 114.8844407 120.8971457 167.6142770 115.0739448 116.8220218 167.5467150
 113.6115256 117.8502270 167.5650774 114.7965857 117.9565068 168.9136063
 119.6559904 118.0164292 164.9359391 121.1401579 117.2603141 165.5807570
 119.8293253 118.2527113 167.4423684 119.8257374 116.5024533 167.6215830
 117.7586078 118.2545210 166.9840000 119.0340000 114.8980000 167.1560000
 115.5530000 120.5180000 175.9530000 115.9910000 120.1960000 174.6350000
 117.5076870 120.3290422 174.5670128 118.1138325 119.4284892 175.4912661
 114.5830000 120.4010000 175.9330000 115.5111500 120.8790745 173.9279185
 115.6824998 119.1678257 174.4219032 117.8237786 121.3419699 174.8380657
 117.8758866 120.0960970 173.5644997 117.6792520 119.6133657 176.3468065
 117.4850000 117.7340000 181.3770000 115.4310000 118.8810000 180.2610000
 115.5419214 120.1141885 181.1559740 114.6668707 117.7958749 181.0057234
 120.0468790 117.2035784 178.7247728 119.4802276 117.3230000 180.1500000
 118.0630000 117.3230000 180.1500000 118.1840000 116.3510000 180.1810000
 117.6591057 116.7741082 180.8772381 117.2653487 117.5834789 182.4357628
 116.5764599 120.4793217 181.1127677 115.2843039 119.8255211 182.1800313
 114.8844407 120.8971457 180.7802770 115.0739448 116.8220218 180.7127150
 113.6115256 117.8502270 180.7310774 114.7965857 117.9565068 182.0796063
 119.6559904 118.0164292 178.1019391 121.1401579 117.2603141 178.7467570
 119.8293253 118.2527113 180.6083684 119.8257374 116.5024533 180.7875830
 117.7586078 118.2545210 180.1500000 119.0340000 114.8980000 180.3220000
 115.5530000 120.5180000 189.1190000 115.9910000 120.1960000 187.8010000
 117.5076870 120.3290422 187.7330128 118.1138325 119.4284892 188.6572661
 114.5830000 120.4010000 189.0990000 115.5111500 120.8790745 187.0939185
 115.6824998 119.1678257 187.5879032 117.8237786 121.3419699 188.0040657
 117.8758866 120.0960970 186.7304997 117.6792520 119.6133657 189.5128065
 117.4850000 117.7340000 194.5420000 115.4310000 118.8810000 193.4260000
 115.5419214 120.1141885 194.3209740 114.6668707 117.7958749 194.1707234
 120.0468790 117.2035784 191.8897728 119.4802276 117.3230000 193.3150000
 118.0630000 117.3230000 193.3150000 118.1840000 116.3510000 193.3460000
 117.6591057 116.7741082 194.0422381 117.2653487 117.5834789 195.6007628
 116.5764599 120.4793217 194.2777677 115.2843039 119.8255211 195.3450313
 114.8844407 120.8971457 193.9452770 115.0739448 116.8220218 193.8777150
 113.6115256 117.8502270 193.8960774 114.7965857 117.9565068 195.2446063
 119.6559904 118.0164292 191.2669391 121.1401579 117.2603141 191.9117570
 119.8293253 118.2527113 193.7733684 119.8257374 116.5024533 193.9525830
 117.7586078 118.2545210 193.3150000 119.0340000 114.8980000 193.4870000
 115.5530000 120.5180000 202.2840000 115.9910000 120.1960000 200.9660000
 117.5076870 120.3290422 200.8980128 118.1138325 119.4284892 201.8222661
 114.5830000 120.4010000 202.2640000 115.5111500 120.8790745 200.2589185
 115.6824998 119.1678257 200.7529032 117.8237786 121.3419699 201.1690657
 117.8758866 120.0960970 199.8954997 117.6792520 119.6133657 202.6778065
 117.4850000 125.0510000  76.0550000 115.4310000 126.1980000  74.9390000
 115.5419214 127.4311885  75.8339740 114.6668707 125.1128749  75.6837234
 120.0468790 124.5205784  73.4027728 119.4802276 124.6400000  74.8280000
 118.0630000 124.6400000  74.8280000 118.1840000 123.6680000  74.8590000
 117.6591057 124.0911082  75.5552381 117.2653487 124.9004789  77.1137628
 116.5764599 127.7963217  75.7907677 115.2843039 127.1425211  76.8580313
 114.8844407 128.2141457  75.4582770 115.0739448 124.1390218  75.3907150
 113.6115256 125.1672270  75.4090774 114.7965857 125.2735068  76.7576063
 119.6559904 125.3334292  72.7799391 121.1401579 124.5773141  73.4247570
 119.8293253 125.5697113  75.2863684 119.8257374 123.8194533  75.4655830
 117.7586078 125.5715210  74.8280000 119.0340000 122.2150000  75.0000000
 115.5530000 127.8350000  83.7970000 115.9910000 127.5130000  82.4790000
 117.5076870 127.6460422  82.4110128 118.1138325 126.7454892  83.3352661
 114.5830000 127.7180000  83.7770000 115.5111500 128.1960745  81.7719185
 115.6824998 126.4848257  82.2659032 117.8237786 128.6589699  82.6820657
 117.8758866 127.4130970  81.4084997 117.6792520 126.9303657  84.1908065
 117.4850000 125.0510000  89.2200000 115.4310000 126.1980000  88.1040000
 115.5419214 127.4311885  88.9989740 114.6668707 125.1128749  88.8487234
 120.0468790 124.5205784  86.5677728 119.4802276 124.6400000  87.9930000
 118.0630000 124.6400000  87.9930000 118.1840000 123.6680000  88.0240000
 117.6591057 124.0911082  88.7202381 117.2653487 124.9004789  90.2787628
 116.5764599 127.7963217  88.9557677 115.2843039 127.1425211  90.0230313
 114.8844407 128.2141457  88.6232770 115.0739448 124.1390218  88.5557150
 113.6115256 125.1672270  88.5740774 114.7965857 125.2735068  89.9226063
 119.6559904 125.3334292  85.9449391 121.1401579 124.5773141  86.5897570
 119.8293253 125.5697113  88.4513684 119.8257374 123.8194533  88.6305830
 117.7586078 125.5715210  87.9930000 119.0340000 122.2150000  88.1650000
 115.5530000 127.8350000  96.9620000 115.9910000 127.5130000  95.6440000
 117.5076870 127.6460422  95.5760128 118.1138325 126.7454892  96.5002661
 114.5830000 127.7180000  96.9420000 115.5111500 128.1960745  94.9369185
 115.6824998 126.4848257  95.4309032 117.8237786 128.6589699  95.8470657
 117.8758866 127.4130970  94.5734997 117.6792520 126.9303657  97.3558065
 117.4850000 125.0510000 102.3850000 115.4310000 126.1980000 101.2690000
 115.5419214 127.4311885 102.1639740 114.6668707 125.1128749 102.0137234
 120.0468790 124.5205784  99.7327728 119.4802276 124.6400000 101.1580000
 118.0630000 124.6400000 101.1580000 118.1840000 123.6680000 101.1890000
 117.6591057 124.0911082 101.8852381 117.2653487 124.9004789 103.4437628
 116.5764599 127.7963217 102.1207677 115.2843039 127.1425211 103.1880313
 114.8844407 128.2141457 101.7882770 115.0739448 124.1390218 101.7207150
 113.6115256 125.1672270 101.7390774 114.7965857 125.2735068 103.0876063
 119.6559904 125.3334292  99.1099391 121.1401579 124.5773141  99.7547570
 119.8293253 125.5697113 101.6163684 119.8257374 123.8194533 101.7955830
 117.7586078 125.5715210 101.1580000 119.0340000 122.2150000 101.3300000
 115.5530000 127.8350000 110.1270000 115.9910000 127.5130000 108.8090000
 117.5076870 127.6460422 108.7410128 118.1138325 126.7454892 109.6652661
 114.5830000 127.7180000 110.1070000 115.5111500 128.1960745 108.1019185
 115.6824998 126.4848257 108.5959032 117.8237786 128.6589699 109.0120657
 117.8758866 127.4130970 107.7384997 117.6792520 126.9303657 110.5208065
 117.4850000 125.0510000 115.5510000 115.4310000 126.1980000 114.4350000
 115.5419214 127.4311885 115.3299740 114.6668707 125.1128749 115.1797234
 120.0468790 124.5205784 112.8987728 119.4802276 124.6400000 114.3240000
 118.0630000 124.6400000 114.3240000 118.1840000 123.6680000 114.3550000
 117.6591057 124.0911082 115.0512381 117.2653487 124.9004789 116.6097628
 116.5764599 127.7963217 115.2867677 115.2843039 127.1425211 116.3540313
 114.8844407 128.2141457 114.9542770 115.0739448 124.1390218 114.8867150
 113.6115256 125.1672270 114.9050774 114.7965857 125.2735068 116.2536063
 119.6559904 125.3334292 112.2759391 121.1401579 124.5773141 112.9207570
 119.8293253 125.5697113 114.7823684 119.8257374 123.8194533 114.9615830
 117.7586078 125.5715210 114.3240000 119.0340000 122.2150000 114.4960000
 115.5530000 127.8350000 123.2930000 115.9910000 127.5130000 121.9750000
 117.5076870 127.6460422 121.9070128 118.1138325 126.7454892 122.8312661
 114.5830000 127.7180000 123.2730000 115.5111500 128.1960745 121.2679185
 115.6824998 126.4848257 121.7619032 117.8237786 128.6589699 122.1780657
 117.8758866 127.4130970 120.9044997 117.6792520 126.9303657 123.6868065
 117.4850000 125.0510000 128.7160000 115.4310000 126.1980000 127.6000000
 115.5419214 127.4311885 128.4949740 114.6668707 125.1128749 128.3447234
 120.0468790 124.5205784 126.0637728 119.4802276 124.6400000 127.4890000
 118.0630000 124.6400000 127.4890000 118.1840000 123.6680000 127.5200000
 117.6591057 124.0911082 128.2162381 117.2653487 124.9004789 129.7747628
 116.5764599 127.7963217 128.4517677 115.2843039 127.1425211 129.5190313
 114.8844407 128.2141457 128.1192770 115.0739448 124.1390218 128.0517150
 113.6115256 125.1672270 128.0700774 114.7965857 125.2735068 129.4186063
 119.6559904 125.3334292 125.4409391 121.1401579 124.5773141 126.0857570
 119.8293253 125.5697113 127.9473684 119.8257374 123.8194533 128.1265830
 117.7586078 125.5715210 127.4890000 119.0340000 122.2150000 127.6610000
 115.5530000 127.8350000 136.4580000 115.9910000 127.5130000 135.1400000
 117.5076870 127.6460422 135.0720128 118.1138325 126.7454892 135.9962661
 114.5830000 127.7180000 136.4380000 115.5111500 128.1960745 134.4329185
 115.6824998 126.4848257 134.9269032 117.8237786 128.6589699 135.3430657
 117.8758866 127.4130970 134.0694997 117.6792520 126.9303657 136.8518065
 117.4850000 125.0510000 141.8810000 115.4310000 126.1980000 140.7650000
 115.5419214 127.4311885 141.6599740 114.6668707 125.1128749 141.5097234
 120.0468790 124.5205784 139.2287728 119.4802276 124.6400000 140.6540000
 118.0630000 124.6400000 140.6540000 118.1840000 123.6680000 140.6850000
 117.6591057 124.0911082 141.3812381 117.2653487 124.9004789 142.9397628
 116.5764599 127.7963217 141.6167677 115.2843039 127.1425211 142.6840313
 114.8844407 128.2141457 141.2842770 115.0739448 124.1390218 141.2167150
 113.6115256 125.1672270 141.2350774 114.7965857 125.2735068 142.5836063
 119.6559904 125.3334292 138.6059391 121.1401579 124.5773141 139.2507570
 119.8293253 125.5697113 141.1123684 119.8257374 123.8194533 141.2915830
 117.7586078 125.5715210 140.6540000 119.0340000 122.2150000 140.8260000
 115.5530000 127.8350000 149.6230000 115.9910000 127.5130000 148.3050000
 117.5076870 127.6460422 148.2370128 118.1138325 126.7454892 149.1612661
 114.5830000 127.7180000 149.6030000 115.5111500 128.1960745 147.5979185
 115.6824998 126.4848257 148.0919032 117.8237786 128.6589699 148.5080657
 117.8758866 127.4130970 147.2344997 117.6792520 126.9303657 150.0168065
 117.4850000 125.0510000 155.0460000 115.4310000 126.1980000 153.9300000
 115.5419214 127.4311885 154.8249740 114.6668707 125.1128749 154.6747234
 120.0468790 124.5205784 152.3937728 119.4802276 124.6400000 153.8190000
 118.0630000 124.6400000 153.8190000 118.1840000 123.6680000 153.8500000
 117.6591057 124.0911082 154.5462381 117.2653487 124.9004789 156.1047628
 116.5764599 127.7963217 154.7817677 115.2843039 127.1425211 155.8490313
 114.8844407 128.2141457 154.4492770 115.0739448 124.1390218 154.3817150
 113.6115256 125.1672270 154.4000774 114.7965857 125.2735068 155.7486063
 119.6559904 125.3334292 151.7709391 121.1401579 124.5773141 152.4157570
 119.8293253 125.5697113 154.2773684 119.8257374 123.8194533 154.4565830
 117.7586078 125.5715210 153.8190000 119.0340000 122.2150000 153.9910000
 115.5530000 127.8350000 162.7880000 115.9910000 127.5130000 161.4700000
 117.5076870 127.6460422 161.4020128 118.1138325 126.7454892 162.3262661
 114.5830000 127.7180000 162.7680000 115.5111500 128.1960745 160.7629185
 115.6824998 126.4848257 161.2569032 117.8237786 128.6589699 161.6730657
 117.8758866 127.4130970 160.3994997 117.6792520 126.9303657 163.1818065
 117.4850000 125.0510000 168.2110000 115.4310000 126.1980000 167.0950000
 115.5419214 127.4311885 167.9899740 114.6668707 125.1128749 167.8397234
 120.0468790 124.5205784 165.5587728 119.4802276 124.6400000 166.9840000
 118.0630000 124.6400000 166.9840000 118.1840000 123.6680000 167.0150000
 117.6591057 124.0911082 167.7112381 117.2653487 124.9004789 169.2697628
 116.5764599 127.7963217 167.9467677 115.2843039 127.1425211 169.0140313
 114.8844407 128.2141457 167.6142770 115.0739448 124.1390218 167.5467150
 113.6115256 125.1672270 167.5650774 114.7965857 125.2735068 168.9136063
 119.6559904 125.3334292 164.9359391 121.1401579 124.5773141 165.5807570
 119.8293253 125.5697113 167.4423684 119.8257374 123.8194533 167.6215830
 117.7586078 125.5715210 166.9840000 119.0340000 122.2150000 167.1560000
 115.5530000 127.8350000 175.9530000 115.9910000 127.5130000 174.6350000
 117.5076870 127.6460422 174.5670128 118.1138325 126.7454892 175.4912661
 114.5830000 127.7180000 175.9330000 115.5111500 128.1960745 173.9279185
 115.6824998 126.4848257 174.4219032 117.8237786 128.6589699 174.8380657
 117.8758866 127.4130970 173.5644997 117.6792520 126.9303657 176.3468065
 117.4850000 125.0510000 181.3770000 115.4310000 126.1980000 180.2610000
 115.5419214 127.4311885 181.1559740 114.6668707 125.1128749 181.0057234
 120.0468790 124.5205784 178.7247728 119.4802276 124.6400000 180.1500000
 118.0630000 124.6400000 180.1500000 118.1840000 123.6680000 180.1810000
 117.6591057 124.0911082 180.8772381 117.2653487 124.9004789 182.4357628
 116.5764599 127.7963217 181.1127677 115.2843039 127.1425211 182.1800313
 114.8844407 128.2141457 180.7802770 115.0739448 124.1390218 180.7127150
 113.6115256 125.1672270 180.7310774 114.7965857 125.2735068 182.0796063
 119.6559904 125.3334292 178.1019391 121.1401579 124.5773141 178.7467570
 119.8293253 125.5697113 180.6083684 119.8257374 123.8194533 180.7875830
 117.7586078 125.5715210 180.1500000 119.0340000 122.2150000 180.3220000
 115.5530000 127.8350000 189.1190000 115.9910000 127.5130000 187.8010000
 117.5076870 127.6460422 187.7330128 118.1138325 126.7454892 188.6572661
 114.5830000 127.7180000 189.0990000 115.5111500 128.1960745 187.0939185
 115.6824998 126.4848257 187.5879032 117.8237786 128.6589699 188.0040657
 117.8758866 127.4130970 186.7304997 117.6792520 126.9303657 189.5128065
 117.4850000 125.0510000 194.5420000 115.4310000 126.1980000 193.4260000
 115.5419214 127.4311885 194.3209740 114.6668707 125.1128749 194.1707234
 120.0468790 124.5205784 191.8897728 119.4802276 124.6400000 193.3150000
 118.0630000 124.6400000 193.3150000 118.1840000 123.6680000 193.3460000
 117.6591057 124.0911082 194.0422381 117.2653487 124.9004789 195.6007628
 116.5764599 127.7963217 194.2777677 115.2843039 127.1425211 195.3450313
 114.8844407 128.2141457 193.9452770 115.0739448 124.1390218 193.8777150
 113.6115256 125.1672270 193.8960774 114.7965857 125.2735068 195.2446063
 119.6559904 125.3334292 191.2669391 121.1401579 124.5773141 191.9117570
 119.8293253 125.5697113 193.7733684 119.8257374 123.8194533 193.9525830
 117.7586078 125.5715210 193.3150000 119.0340000 122.2150000 193.4870000
 115.5530000 127.8350000 202.2840000 115.9910000 127.5130000 200.9660000
 117.5076870 127.6460422 200.8980128 118.1138325 126.7454892 201.8222661
 114.5830000 127.7180000 202.2640000 115.5111500 128.1960745 200.2589185
 115.6824998 126.4848257 200.7529032 117.8237786 128.6589699 201.1690657
 117.8758866 127.4130970 199.8954997 117.6792520 126.9303657 202.6778065
 117.4850000 132.3670000  76.0550000 115.4310000 133.5140000  74.9390000
 115.5419214 134.7471885  75.8339740 114.6668707 132.4288749  75.6837234
 120.0468790 131.8365784  73.4027728 119.4802276 131.9560000  74.8280000
 118.0630000 131.9560000  74.8280000 118.1840000 130.9840000  74.8590000
 117.6591057 131.4071082  75.5552381 117.2653487 132.2164789  77.1137628
 116.5764599 135.1123217  75.7907677 115.2843039 134.4585211  76.8580313
 114.8844407 135.5301457  75.4582770 115.0739448 131.4550218  75.3907150
 113.6115256 132.4832270  75.4090774 114.7965857 132.5895068  76.7576063
 119.6559904 132.6494292  72.7799391 121.1401579 131.8933141  73.4247570
 119.8293253 132.8857113  75.2863684 119.8257374 131.1354533  75.4655830
 117.7586078 132.8875210  74.8280000 119.0340000 129.5310000  75.0000000
 115.5530000 135.1510000  83.7970000 115.9910000 134.8290000  82.4790000
 117.5076870 134.9620422  82.4110128 118.1138325 134.0614892  83.3352661
 114.5830000 135.0340000  83.7770000 115.5111500 135.5120745  81.7719185
 115.6824998 133.8008257  82.2659032 117.8237786 135.9749699  82.6820657
 117.8758866 134.7290970  81.4084997 117.6792520 134.2463657  84.1908065
 117.4850000 132.3670000  89.2200000 115.4310000 133.5140000  88.1040000
 115.5419214 134.7471885  88.9989740 114.6668707 132.4288749  88.8487234
 120.0468790 131.8365784  86.5677728 119.4802276 131.9560000  87.9930000
 118.0630000 131.9560000  87.9930000 118.1840000 130.9840000  88.0240000
 117.6591057 131.4071082  88.7202381 117.2653487 132.2164789  90.2787628
 116.5764599 135.1123217  88.9557677 115.2843039 134.4585211  90.0230313
 114.8844407 135.5301457  88.6232770 115.0739448 131.4550218  88.5557150
 113.6115256 132.4832270  88.5740774 114.7965857 132.5895068  89.9226063
 119.6559904 132.6494292  85.9449391 121.1401579 131.8933141  86.5897570
 119.8293253 132.8857113  88.4513684 119.8257374 131.1354533  88.6305830
 117.7586078 132.8875210  87.9930000 119.0340000 129.5310000  88.1650000
 115.5530000 135.1510000  96.9620000 115.9910000 134.8290000  95.6440000
 117.5076870 134.9620422  95.5760128 118.1138325 134.0614892  96.5002661
 114.5830000 135.0340000  96.9420000 115.5111500 135.5120745  94.9369185
 115.6824998 133.8008257  95.4309032 117.8237786 135.9749699  95.8470657
 117.8758866 134.7290970  94.5734997 117.6792520 134.2463657  97.3558065
 117.4850000 132.3670000 102.3850000 115.4310000 133.5140000 101.2690000
 115.5419214 134.7471885 102.1639740 114.6668707 132.4288749 102.0137234
 120.0468790 131.8365784  99.7327728 119.4802276 131.9560000 101.1580000
 118.0630000 131.9560000 101.1580000 118.1840000 130.9840000 101.1890000
 117.6591057 131.4071082 101.8852381 117.2653487 132.2164789 103.4437628
 116.5764599 135.1123217 102.1207677 115.2843039 134.4585211 103.1880313
 114.8844407 135.5301457 101.7882770 115.0739448 131.4550218 101.7207150
 113.6115256 132.4832270 101.7390774 114.7965857 132.5895068 103.0876063
 119.6559904 132.6494292  99.1099391 121.1401579 131.8933141  99.7547570
 119.8293253 132.8857113 101.6163684 119.8257374 131.1354533 101.7955830
 117.7586078 132.8875210 101.1580000 119.0340000 129.5310000 101.3300000
 115.5530000 135.1510000 110.1270000 115.9910000 134.8290000 108.8090000
 117.5076870 134.9620422 108.7410128 118.1138325 134.0614892 109.6652661
 114.5830000 135.0340000 110.1070000 115.5111500 135.5120745 108.1019185
 115.6824998 133.8008257 108.5959032 117.8237786 135.9749699 109.0120657
 117.8758866 134.7290970 107.7384997 117.6792520 134.2463657 110.5208065
 117.4850000 132.3670000 115.5510000 115.4310000 133.5140000 114.4350000
 115.5419214 134.7471885 115.3299740 114.6668707 132.4288749 115.1797234
 120.0468790 131.8365784 112.8987728 119.4802276 131.9560000 114.3240000
 118.0630000 131.9560000 114.3240000 118.1840000 130.9840000 114.3550000
 117.6591057 131.4071082 115.0512381 117.2653487 132.2164789 116.6097628
 116.5764599 135.1123217 115.2867677 115.2843039 134.4585211 116.3540313
 114.8844407 135.5301457 114.9542770 115.0739448 131.4550218 114.8867150
 113.6115256 132.4832270 114.9050774 114.7965857 132.5895068 116.2536063
 119.6559904 132.6494292 112.2759391 121.1401579 131.8933141 112.9207570
 119.8293253 132.8857113 114.7823684 119.8257374 131.1354533 114.9615830
 117.7586078 132.8875210 114.3240000 119.0340000 129.5310000 114.4960000
 115.5530000 135.1510000 123.2930000 115.9910000 134.8290000 121.9750000
 117.5076870 134.9620422 121.9070128 118.1138325 134.0614892 122.8312661
 114.5830000 135.0340000 123.2730000 115.5111500 135.5120745 121.2679185
 115.6824998 133.8008257 121.7619032 117.8237786 135.9749699 122.1780657
 117.8758866 134.7290970 120.9044997 117.6792520 134.2463657 123.6868065
 117.4850000 132.3670000 128.7160000 115.4310000 133.5140000 127.6000000
 115.5419214 134.7471885 128.4949740 114.6668707 132.4288749 128.3447234
 120.0468790 131.8365784 126.0637728 119.4802276 131.9560000 127.4890000
 118.0630000 131.9560000 127.4890000 118.1840000 130.9840000 127.5200000
 117.6591057 131.4071082 128.2162381 117.2653487 132.2164789 129.7747628
 116.5764599 135.1123217 128.4517677 115.2843039 134.4585211 129.5190313
 114.8844407 135.5301457 128.1192770 115.0739448 131.4550218 128.0517150
 113.6115256 132.4832270 128.0700774 114.7965857 132.5895068 129.4186063
 119.6559904 132.6494292 125.4409391 121.1401579 131.8933141 126.0857570
 119.8293253 132.8857113 127.9473684 119.8257374 131.1354533 128.1265830
 117.7586078 132.8875210 127.4890000 119.0340000 129.5310000 127.6610000
 115.5530000 135.1510000 136.4580000 115.9910000 134.8290000 135.1400000
 117.5076870 134.9620422 135.0720128 118.1138325 134.0614892 135.9962661
 114.5830000 135.0340000 136.4380000 115.5111500 135.5120745 134.4329185
 115.6824998 133.8008257 134.9269032 117.8237786 135.9749699 135.3430657
 117.8758866 134.7290970 134.0694997 117.6792520 134.2463657 136.8518065
 117.4850000 132.3670000 141.8810000 115.4310000 133.5140000 140.7650000
 115.5419214 134.7471885 141.6599740 114.6668707 132.4288749 141.5097234
 120.0468790 131.8365784 139.2287728 119.4802276 131.9560000 140.6540000
 118.0630000 131.9560000 140.6540000 118.1840000 130.9840000 140.6850000
 117.6591057 131.4071082 141.3812381 117.2653487 132.2164789 142.9397628
 116.5764599 135.1123217 141.6167677 115.2843039 134.4585211 142.6840313
 114.8844407 135.5301457 141.2842770 115.0739448 131.4550218 141.2167150
 113.6115256 132.4832270 141.2350774 114.7965857 132.5895068 142.5836063
 119.6559904 132.6494292 138.6059391 121.1401579 131.8933141 139.2507570
 119.8293253 132.8857113 141.1123684 119.8257374 131.1354533 141.2915830
 117.7586078 132.8875210 140.6540000 119.0340000 129.5310000 140.8260000
 115.5530000 135.1510000 149.6230000 115.9910000 134.8290000 148.3050000
 117.5076870 134.9620422 148.2370128 118.1138325 134.0614892 149.1612661
 114.5830000 135.0340000 149.6030000 115.5111500 135.5120745 147.5979185
 115.6824998 133.8008257 148.0919032 117.8237786 135.9749699 148.5080657
 117.8758866 134.7290970 147.2344997 117.6792520 134.2463657 150.0168065
 117.4850000 132.3670000 155.0460000 115.4310000 133.5140000 153.9300000
 115.5419214 134.7471885 154.8249740 114.6668707 132.4288749 154.6747234
 120.0468790 131.8365784 152.3937728 119.4802276 131.9560000 153.8190000
 118.0630000 131.9560000 153.8190000 118.1840000 130.9840000 153.8500000
 117.6591057 131.4071082 154.5462381 117.2653487 132.2164789 156.1047628
 116.5764599 135.1123217 154.7817677 115.2843039 134.4585211 155.8490313
 114.8844407 135.5301457 154.4492770 115.0739448 131.4550218 154.3817150
 113.6115256 132.4832270 154.4000774 114.7965857 132.5895068 155.7486063
 119.6559904 132.6494292 151.7709391 121.1401579 131.8933141 152.4157570
 119.8293253 132.8857113 154.2773684 119.8257374 131.1354533 154.4565830
 117.7586078 132.8875210 153.8190000 119.0340000 129.5310000 153.9910000
 115.5530000 135.1510000 162.7880000 115.9910000 134.8290000 161.4700000
 117.5076870 134.9620422 161.4020128 118.1138325 134.0614892 162.3262661
 114.5830000 135.0340000 162.7680000 115.5111500 135.5120745 160.7629185
 115.6824998 133.8008257 161.2569032 117.8237786 135.9749699 161.6730657
 117.8758866 134.7290970 160.3994997 117.6792520 134.2463657 163.1818065
 117.4850000 132.3670000 168.2110000 115.4310000 133.5140000 167.0950000
 115.5419214 134.7471885 167.9899740 114.6668707 132.4288749 167.8397234
 120.0468790 131.8365784 165.5587728 119.4802276 131.9560000 166.9840000
 118.0630000 131.9560000 166.9840000 118.1840000 130.9840000 167.0150000
 117.6591057 131.4071082 167.7112381 117.2653487 132.2164789 169.2697628
 116.5764599 135.1123217 167.9467677 115.2843039 134.4585211 169.0140313
 114.8844407 135.5301457 167.6142770 115.0739448 131.4550218 167.5467150
 113.6115256 132.4832270 167.5650774 114.7965857 132.5895068 168.9136063
 119.6559904 132.6494292 164.9359391 121.1401579 131.8933141 165.5807570
 119.8293253 132.8857113 167.4423684 119.8257374 131.1354533 167.6215830
 117.7586078 132.8875210 166.9840000 119.0340000 129.5310000 167.1560000
 115.5530000 135.1510000 175.9530000 115.9910000 134.8290000 174.6350000
 117.5076870 134.9620422 174.5670128 118.1138325 134.0614892 175.4912661
 114.5830000 135.0340000 175.9330000 115.5111500 135.5120745 173.9279185
 115.6824998 133.8008257 174.4219032 117.8237786 135.9749699 174.8380657
 117.8758866 134.7290970 173.5644997 117.6792520 134.2463657 176.3468065
 117.4850000 132.3670000 181.3770000 115.4310000 133.5140000 180.2610000
 115.5419214 134.7471885 181.1559740 114.6668707 132.4288749 181.0057234
 120.0468790 131.8365784 178.7247728 119.4802276 131.9560000 180.1500000
 118.0630000 131.9560000 180.1500000 118.1840000 130.9840000 180.1810000
 117.6591057 131.4071082 180.8772381 117.2653487 132.2164789 182.4357628
 116.5764599 135.1123217 181.1127677 115.2843039 134.4585211 182.1800313
 114.8844407 135.5301457 180.7802770 115.0739448 131.4550218 180.7127150
 113.6115256 132.4832270 180.7310774 114.7965857 132.5895068 182.0796063
 119.6559904 132.6494292 178.1019391 121.1401579 131.8933141 178.7467570
 119.8293253 132.8857113 180.6083684 119.8257374 131.1354533 180.7875830
 117.7586078 132.8875210 180.1500000 119.0340000 129.5310000 180.3220000
 115.5530000 135.1510000 189.1190000 115.9910000 134.8290000 187.8010000
 117.5076870 134.9620422 187.7330128 118.1138325 134.0614892 188.6572661
 114.5830000 135.0340000 189.0990000 115.5111500 135.5120745 187.0939185
 115.6824998 133.8008257 187.5879032 117.8237786 135.9749699 188.0040657
 117.8758866 134.7290970 186.7304997 117.6792520 134.2463657 189.5128065
 117.4850000 132.3670000 194.5420000 115.4310000 133.5140000 193.4260000
 115.5419214 134.7471885 194.3209740 114.6668707 132.4288749 194.1707234
 120.0468790 131.8365784 191.8897728 119.4802276 131.9560000 193.3150000
 118.0630000 131.9560000 193.3150000 118.1840000 130.9840000 193.3460000
 117.6591057 131.4071082 194.0422381 117.2653487 132.2164789 195.6007628
 116.5764599 135.1123217 194.2777677 115.2843039 134.4585211 195.3450313
 114.8844407 135.5301457 193.9452770 115.0739448 131.4550218 193.8777150
 113.6115256 132.4832270 193.8960774 114.7965857 132.5895068 195.2446063
 119.6559904 132.6494292 191.2669391 121.1401579 131.8933141 191.9117570
 119.8293253 132.8857113 193.7733684 119.8257374 131.1354533 193.9525830
 117.7586078 132.8875210 193.3150000 119.0340000 129.5310000 193.4870000
 115.5530000 135.1510000 202.2840000 115.9910000 134.8290000 200.9660000
 117.5076870 134.9620422 200.8980128 118.1138325 134.0614892 201.8222661
 114.5830000 135.0340000 202.2640000 115.5111500 135.5120745 200.2589185
 115.6824998 133.8008257 200.7529032 117.8237786 135.9749699 201.1690657
 117.8758866 134.7290970 199.8954997 117.6792520 134.2463657 202.6778065
 117.4850000 139.6840000  76.0550000 115.4310000 140.8310000  74.9390000
 115.5419214 142.0641885  75.8339740 114.6668707 139.7458749  75.6837234
 120.0468790 139.1535784  73.4027728 119.4802276 139.2730000  74.8280000
 118.0630000 139.2730000  74.8280000 118.1840000 138.3010000  74.8590000
 117.6591057 138.7241082  75.5552381 117.2653487 139.5334789  77.1137628
 116.5764599 142.4293217  75.7907677 115.2843039 141.7755211  76.8580313
 114.8844407 142.8471457  75.4582770 115.0739448 138.7720218  75.3907150
 113.6115256 139.8002270  75.4090774 114.7965857 139.9065068  76.7576063
 119.6559904 139.9664292  72.7799391 121.1401579 139.2103141  73.4247570
 119.8293253 140.2027113  75.2863684 119.8257374 138.4524533  75.4655830
 117.7586078 140.2045210  74.8280000 119.0340000 136.8480000  75.0000000
 115.5530000 142.4680000  83.7970000 115.9910000 142.1460000  82.4790000
 117.5076870 142.2790422  82.4110128 118.1138325 141.3784892  83.3352661
 114.5830000 142.3510000  83.7770000 115.5111500 142.8290745  81.7719185
 115.6824998 141.1178257  82.2659032 117.8237786 143.2919699  82.6820657
 117.8758866 142.0460970  81.4084997 117.6792520 141.5633657  84.1908065
 117.4850000 139.6840000  89.2200000 115.4310000 140.8310000  88.1040000
 115.5419214 142.0641885  88.9989740 114.6668707 139.7458749  88.8487234
 120.0468790 139.1535784  86.5677728 119.4802276 139.2730000  87.9930000
 118.0630000 139.2730000  87.9930000 118.1840000 138.3010000  88.0240000
 117.6591057 138.7241082  88.7202381 117.2653487 139.5334789  90.2787628
 116.5764599 142.4293217  88.9557677 115.2843039 141.7755211  90.0230313
 114.8844407 142.8471457  88.6232770 115.0739448 138.7720218  88.5557150
 113.6115256 139.8002270  88.5740774 114.7965857 139.9065068  89.9226063
 119.6559904 139.9664292  85.9449391 121.1401579 139.2103141  86.5897570
 119.8293253 140.2027113  88.4513684 119.8257374 138.4524533  88.6305830
 117.7586078 140.2045210  87.9930000 119.0340000 136.8480000  88.1650000
 115.5530000 142.4680000  96.9620000 115.9910000 142.1460000  95.6440000
 117.5076870 142.2790422  95.5760128 118.1138325 141.3784892  96.5002661
 114.5830000 142.3510000  96.9420000 115.5111500 142.8290745  94.9369185
 115.6824998 141.1178257  95.4309032 117.8237786 143.2919699  95.8470657
 117.8758866 142.0460970  94.5734997 117.6792520 141.5633657  97.3558065
 117.4850000 139.6840000 102.3850000 115.4310000 140.8310000 101.2690000
 115.5419214 142.0641885 102.1639740 114.6668707 139.7458749 102.0137234
 120.0468790 139.1535784  99.7327728 119.4802276 139.2730000 101.1580000
 118.0630000 139.2730000 101.1580000 118.1840000 138.3010000 101.1890000
 117.6591057 138.7241082 101.8852381 117.2653487 139.5334789 103.4437628
 116.5764599 142.4293217 102.1207677 115.2843039 141.7755211 103.1880313
 114.8844407 142.8471457 101.7882770 115.0739448 138.7720218 101.7207150
 113.6115256 139.8002270 101.7390774 114.7965857 139.9065068 103.0876063
 119.6559904 139.9664292  99.1099391 121.1401579 139.2103141  99.7547570
 119.8293253 140.2027113 101.6163684 119.8257374 138.4524533 101.7955830
 117.7586078 140.2045210 101.1580000 119.0340000 136.8480000 101.3300000
 115.5530000 142.4680000 110.1270000 115.9910000 142.1460000 108.8090000
 117.5076870 142.2790422 108.7410128 118.1138325 141.3784892 109.6652661
 114.5830000 142.3510000 110.1070000 115.5111500 142.8290745 108.1019185
 115.6824998 141.1178257 108.5959032 117.8237786 143.2919699 109.0120657
 117.8758866 142.0460970 107.7384997 117.6792520 141.5633657 110.5208065
 117.4850000 139.6840000 115.5510000 115.4310000 140.8310000 114.4350000
 115.5419214 142.0641885 115.3299740 114.6668707 139.7458749 115.1797234
 120.0468790 139.1535784 112.8987728 119.4802276 139.2730000 114.3240000
 118.0630000 139.2730000 114.3240000 118.1840000 138.3010000 114.3550000
 117.6591057 138.7241082 115.0512381 117.2653487 139.5334789 116.6097628
 116.5764599 142.4293217 115.2867677 115.2843039 141.7755211 116.3540313
 114.8844407 142.8471457 114.9542770 115.0739448 138.7720218 114.8867150
 113.6115256 139.8002270 114.9050774 114.7965857 139.9065068 116.2536063
 119.6559904 139.9664292 112.2759391 121.1401579 139.2103141 112.9207570
 119.8293253 140.2027113 114.7823684 119.8257374 138.4524533 114.9615830
 117.7586078 140.2045210 114.3240000 119.0340000 136.8480000 114.4960000
 115.5530000 142.4680000 123.2930000 115.9910000 142.1460000 121.9750000
 117.5076870 142.2790422 121.9070128 118.1138325 141.3784892 122.8312661
 114.5830000 142.3510000 123.2730000 115.5111500 142.8290745 121.2679185
 115.6824998 141.1178257 121.7619032 117.8237786 143.2919699 122.1780657
 117.8758866 142.0460970 120.9044997 117.6792520 141.5633657 123.6868065
 117.4850000 139.6840000 128.7160000 115.4310000 140.8310000 127.6000000
 115.5419214 142.0641885 128.4949740 114.6668707 139.7458749 128.3447234
 120.0468790 139.1535784 126.0637728 119.4802276 139.2730000 127.4890000
 118.0630000 139.2730000 127.4890000 118.1840000 138.3010000 127.5200000
 117.6591057 138.7241082 128.2162381 117.2653487 139.5334789 129.7747628
 116.5764599 142.4293217 128.4517677 115.2843039 141.7755211 129.5190313
 114.8844407 142.8471457 128.1192770 115.0739448 138.7720218 128.0517150
 113.6115256 139.8002270 128.0700774 114.7965857 139.9065068 129.4186063
 119.6559904 139.9664292 125.4409391 121.1401579 139.2103141 126.0857570
 119.8293253 140.2027113 127.9473684 119.8257374 138.4524533 128.1265830
 117.7586078 140.2045210 127.4890000 119.0340000 136.8480000 127.6610000
 115.5530000 142.4680000 136.4580000 115.9910000 142.1460000 135.1400000
 117.5076870 142.2790422 135.0720128 118.1138325 141.3784892 135.9962661
 114.5830000 142.3510000 136.4380000 115.5111500 142.8290745 134.4329185
 115.6824998 141.1178257 134.9269032 117.8237786 143.2919699 135.3430657
 117.8758866 142.0460970 134.0694997 117.6792520 141.5633657 136.8518065
 117.4850000 139.6840000 141.8810000 115.4310000 140.8310000 140.7650000
 115.5419214 142.0641885 141.6599740 114.6668707 139.7458749 141.5097234
 120.0468790 139.1535784 139.2287728 119.4802276 139.2730000 140.6540000
 118.0630000 139.2730000 140.6540000 118.1840000 138.3010000 140.6850000
 117.6591057 138.7241082 141.3812381 117.2653487 139.5334789 142.9397628
 116.5764599 142.4293217 141.6167677 115.2843039 141.7755211 142.6840313
 114.8844407 142.8471457 141.2842770 115.0739448 138.7720218 141.2167150
 113.6115256 139.8002270 141.2350774 114.7965857 139.9065068 142.5836063
 119.6559904 139.9664292 138.6059391 121.1401579 139.2103141 139.2507570
 119.8293253 140.2027113 141.1123684 119.8257374 138.4524533 141.2915830
 117.7586078 140.2045210 140.6540000 119.0340000 136.8480000 140.8260000
 115.5530000 142.4680000 149.6230000 115.9910000 142.1460000 148.3050000
 117.5076870 142.2790422 148.2370128 118.1138325 141.3784892 149.1612661
 114.5830000 142.3510000 149.6030000 115.5111500 142.8290745 147.5979185
 115.6824998 141.1178257 148.0919032 117.8237786 143.2919699 148.5080657
 117.8758866 142.0460970 147.2344997 117.6792520 141.5633657 150.0168065
 117.4850000 139.6840000 155.0460000 115.4310000 140.8310000 153.9300000
 115.5419214 142.0641885 154.8249740 114.6668707 139.7458749 154.6747234
 120.0468790 139.1535784 152.3937728 119.4802276 139.2730000 153.8190000
 118.0630000 139.2730000 153.8190000 118.1840000 138.3010000 153.8500000
 117.6591057 138.7241082 154.5462381 117.2653487 139.5334789 156.1047628
 116.5764599 142.4293217 154.7817677 115.2843039 141.7755211 155.8490313
 114.8844407 142.8471457 154.4492770 115.0739448 138.7720218 154.3817150
 113.6115256 139.8002270 154.4000774 114.7965857 139.9065068 155.7486063
 119.6559904 139.9664292 151.7709391 121.1401579 139.2103141 152.4157570
 119.8293253 140.2027113 154.2773684 119.8257374 138.4524533 154.4565830
 117.7586078 140.2045210 153.8190000 119.0340000 136.8480000 153.9910000
 115.5530000 142.4680000 162.7880000 115.9910000 142.1460000 161.4700000
 117.5076870 142.2790422 161.4020128 118.1138325 141.3784892 162.3262661
 114.5830000 142.3510000 162.7680000 115.5111500 142.8290745 160.7629185
 115.6824998 141.1178257 161.2569032 117.8237786 143.2919699 161.6730657
 117.8758866 142.0460970 160.3994997 117.6792520 141.5633657 163.1818065
 117.4850000 139.6840000 168.2110000 115.4310000 140.8310000 167.0950000
 115.5419214 142.0641885 167.9899740 114.6668707 139.7458749 167.8397234
 120.0468790 139.1535784 165.5587728 119.4802276 139.2730000 166.9840000
 118.0630000 139.2730000 166.9840000 118.1840000 138.3010000 167.0150000
 117.6591057 138.7241082 167.7112381 117.2653487 139.5334789 169.2697628
 116.5764599 142.4293217 167.9467677 115.2843039 141.7755211 169.0140313
 114.8844407 142.8471457 167.6142770 115.0739448 138.7720218 167.5467150
 113.6115256 139.8002270 167.5650774 114.7965857 139.9065068 168.9136063
 119.6559904 139.9664292 164.9359391 121.1401579 139.2103141 165.5807570
 119.8293253 140.2027113 167.4423684 119.8257374 138.4524533 167.6215830
 117.7586078 140.2045210 166.9840000 119.0340000 136.8480000 167.1560000
 115.5530000 142.4680000 175.9530000 115.9910000 142.1460000 174.6350000
 117.5076870 142.2790422 174.5670128 118.1138325 141.3784892 175.4912661
 114.5830000 142.3510000 175.9330000 115.5111500 142.8290745 173.9279185
 115.6824998 141.1178257 174.4219032 117.8237786 143.2919699 174.8380657
 117.8758866 142.0460970 173.5644997 117.6792520 141.5633657 176.3468065
 117.4850000 139.6840000 181.3770000 115.4310000 140.8310000 180.2610000
 115.5419214 142.0641885 181.1559740 114.6668707 139.7458749 181.0057234
 120.0468790 139.1535784 178.7247728 119.4802276 139.2730000 180.1500000
 118.0630000 139.2730000 180.1500000 118.1840000 138.3010000 180.1810000
 117.6591057 138.7241082 180.8772381 117.2653487 139.5334789 182.4357628
 116.5764599 142.4293217 181.1127677 115.2843039 141.7755211 182.1800313
 114.8844407 142.8471457 180.7802770 115.0739448 138.7720218 180.7127150
 113.6115256 139.8002270 180.7310774 114.7965857 139.9065068 182.0796063
 119.6559904 139.9664292 178.1019391 121.1401579 139.2103141 178.7467570
 119.8293253 140.2027113 180.6083684 119.8257374 138.4524533 180.7875830
 117.7586078 140.2045210 180.1500000 119.0340000 136.8480000 180.3220000
 115.5530000 142.4680000 189.1190000 115.9910000 142.1460000 187.8010000
 117.5076870 142.2790422 187.7330128 118.1138325 141.3784892 188.6572661
 114.5830000 142.3510000 189.0990000 115.5111500 142.8290745 187.0939185
 115.6824998 141.1178257 187.5879032 117.8237786 143.2919699 188.0040657
 117.8758866 142.0460970 186.7304997 117.6792520 141.5633657 189.5128065
 117.4850000 139.6840000 194.5420000 115.4310000 140.8310000 193.4260000
 115.5419214 142.0641885 194.3209740 114.6668707 139.7458749 194.1707234
 120.0468790 139.1535784 191.8897728 119.4802276 139.2730000 193.3150000
 118.0630000 139.2730000 193.3150000 118.1840000 138.3010000 193.3460000
 117.6591057 138.7241082 194.0422381 117.2653487 139.5334789 195.6007628
 116.5764599 142.4293217 194.2777677 115.2843039 141.7755211 195.3450313
 114.8844407 142.8471457 193.9452770 115.0739448 138.7720218 193.8777150
 113.6115256 139.8002270 193.8960774 114.7965857 139.9065068 195.2446063
 119.6559904 139.9664292 191.2669391 121.1401579 139.2103141 191.9117570
 119.8293253 140.2027113 193.7733684 119.8257374 138.4524533 193.9525830
 117.7586078 140.2045210 193.3150000 119.0340000 136.8480000 193.4870000
 115.5530000 142.4680000 202.2840000 115.9910000 142.1460000 200.9660000
 117.5076870 142.2790422 200.8980128 118.1138325 141.3784892 201.8222661
 114.5830000 142.3510000 202.2640000 115.5111500 142.8290745 200.2589185
 115.6824998 141.1178257 200.7529032 117.8237786 143.2919699 201.1690657
 117.8758866 142.0460970 199.8954997 117.6792520 141.5633657 202.6778065
 130.1630000  73.8360000  76.0550000 128.1090000  74.9830000  74.9390000
 128.2199214  76.2161885  75.8339740 127.3448707  73.8978749  75.6837234
 132.7248790  73.3055784  73.4027728 132.1582276  73.4250000  74.8280000
 130.7410000  73.4250000  74.8280000 130.8620000  72.4530000  74.8590000
 130.3371057  72.8761082  75.5552381 129.9433487  73.6854789  77.1137628
 129.2544599  76.5813217  75.7907677 127.9623039  75.9275211  76.8580313
 127.5624407  76.9991457  75.4582770 127.7519448  72.9240218  75.3907150
 126.2895256  73.9522270  75.4090774 127.4745857  74.0585068  76.7576063
 132.3339904  74.1184292  72.7799391 133.8181579  73.3623141  73.4247570
 132.5073253  74.3547113  75.2863684 132.5037374  72.6044533  75.4655830
 130.4366078  74.3565210  74.8280000 131.7120000  71.0000000  75.0000000
 128.2310000  76.6200000  83.7970000 128.6690000  76.2980000  82.4790000
 130.1856870  76.4310422  82.4110128 130.7918325  75.5304892  83.3352661
 127.2610000  76.5030000  83.7770000 128.1891500  76.9810745  81.7719185
 128.3604998  75.2698257  82.2659032 130.5017786  77.4439699  82.6820657
 130.5538866  76.1980970  81.4084997 130.3572520  75.7153657  84.1908065
 130.1630000  73.8360000  89.2200000 128.1090000  74.9830000  88.1040000
 128.2199214  76.2161885  88.9989740 127.3448707  73.8978749  88.8487234
 132.7248790  73.3055784  86.5677728 132.1582276  73.4250000  87.9930000
 130.7410000  73.4250000  87.9930000 130.8620000  72.4530000  88.0240000
 130.3371057  72.8761082  88.7202381 129.9433487  73.6854789  90.2787628
 129.2544599  76.5813217  88.9557677 127.9623039  75.9275211  90.0230313
 127.5624407  76.9991457  88.6232770 127.7519448  72.9240218  88.5557150
 126.2895256  73.9522270  88.5740774 127.4745857  74.0585068  89.9226063
 132.3339904  74.1184292  85.9449391 133.8181579  73.3623141  86.5897570
 132.5073253  74.3547113  88.4513684 132.5037374  72.6044533  88.6305830
 130.4366078  74.3565210  87.9930000 131.7120000  71.0000000  88.1650000
 128.2310000  76.6200000  96.9620000 128.6690000  76.2980000  95.6440000
 130.1856870  76.4310422  95.5760128 130.7918325  75.5304892  96.5002661
 127.2610000  76.5030000  96.9420000 128.1891500  76.9810745  94.9369185
 128.3604998  75.2698257  95.4309032 130.5017786  77.4439699  95.8470657
 130.5538866  76.1980970  94.5734997 130.3572520  75.7153657  97.3558065
 130.1630000  73.8360000 102.3850000 128.1090000  74.9830000 101.2690000
 128.2199214  76.2161885 102.1639740 127.3448707  73.8978749 102.0137234
 132.7248790  73.3055784  99.7327728 132.1582276  73.4250000 101.1580000
 130.7410000  73.4250000 101.1580000 130.8620000  72.4530000 101.1890000
 130.3371057  72.8761082 101.8852381 129.9433487  73.6854789 103.4437628
 129.2544599  76.5813217 102.1207677 127.9623039  75.9275211 103.1880313
 127.5624407  76.9991457 101.7882770 127.7519448  72.9240218 101.7207150
 126.2895256  73.9522270 101.7390774 127.4745857  74.0585068 103.0876063
 132.3339904  74.1184292  99.1099391 133.8181579  73.3623141  99.7547570
 132.5073253  74.3547113 101.6163684 132.5037374  72.6044533 101.7955830
 130.4366078  74.3565210 101.1580000 131.7120000  71.0000000 101.3300000
 128.2310000  76.6200000 110.1270000 128.6690000  76.2980000 108.8090000
 130.1856870  76.4310422 108.7410128 130.7918325  75.5304892 109.6652661
 127.2610000  76.5030000 110.1070000 128.1891500  76.9810745 108.1019185
 128.3604998  75.2698257 108.5959032 130.5017786  77.4439699 109.0120657
 130.5538866  76.1980970 107.7384997 130.3572520  75.7153657 110.5208065
 130.1630000  73.8360000 115.5510000 128.1090000  74.9830000 114.4350000
 128.2199214  76.2161885 115.3299740 127.3448707  73.8978749 115.1797234
 132.7248790  73.3055784 112.8987728 132.1582276  73.4250000 114.3240000
 130.7410000  73.4250000 114.3240000 130.8620000  72.4530000 114.3550000
 130.3371057  72.8761082 115.0512381 129.9433487  73.6854789 116.6097628
 129.2544599  76.5813217 115.2867677 127.9623039  75.9275211 116.3540313
 127.5624407  76.9991457 114.9542770 127.7519448  72.9240218 114.8867150
 126.2895256  73.9522270 114.9050774 127.4745857  74.0585068 116.2536063
 132.3339904  74.1184292 112.2759391 133.8181579  73.3623141 112.9207570
 132.5073253  74.3547113 114.7823684 132.5037374  72.6044533 114.9615830
 130.4366078  74.3565210 114.3240000 131.7120000  71.0000000 114.4960000
 128.2310000  76.6200000 123.2930000 128.6690000  76.2980000 121.9750000
 130.1856870  76.4310422 121.9070128 130.7918325  75.5304892 122.8312661
 127.2610000  76.5030000 123.2730000 128.1891500  76.9810745 121.2679185
 128.3604998  75.2698257 121.7619032 130.5017786  77.4439699 122.1780657
 130.5538866  76.1980970 120.9044997 130.3572520  75.7153657 123.6868065
 130.1630000  73.8360000 128.7160000 128.1090000  74.9830000 127.6000000
 128.2199214  76.2161885 128.4949740 127.3448707  73.8978749 128.3447234
 132.7248790  73.3055784 126.0637728 132.1582276  73.4250000 127.4890000
 130.7410000  73.4250000 127.4890000 130.8620000  72.4530000 127.5200000
 130.3371057  72.8761082 128.2162381 129.9433487  73.6854789 129.7747628
 129.2544599  76.5813217 128.4517677 127.9623039  75.9275211 129.5190313
 127.5624407  76.9991457 128.1192770 127.7519448  72.9240218 128.0517150
 126.2895256  73.9522270 128.0700774 127.4745857  74.0585068 129.4186063
 132.3339904  74.1184292 125.4409391 133.8181579  73.3623141 126.0857570
 132.5073253  74.3547113 127.9473684 132.5037374  72.6044533 128.1265830
 130.4366078  74.3565210 127.4890000 131.7120000  71.0000000 127.6610000
 128.2310000  76.6200000 136.4580000 128.6690000  76.2980000 135.1400000
 130.1856870  76.4310422 135.0720128 130.7918325  75.5304892 135.9962661
 127.2610000  76.5030000 136.4380000 128.1891500  76.9810745 134.4329185
 128.3604998  75.2698257 134.9269032 130.5017786  77.4439699 135.3430657
 130.5538866  76.1980970 134.0694997 130.3572520  75.7153657 136.8518065
 130.1630000  73.8360000 141.8810000 128.1090000  74.9830000 140.7650000
 128.2199214  76.2161885 141.6599740 127.3448707  73.8978749 141.5097234
 132.7248790  73.3055784 139.2287728 132.1582276  73.4250000 140.6540000
 130.7410000  73.4250000 140.6540000 130.8620000  72.4530000 140.6850000
 130.3371057  72.8761082 141.3812381 129.9433487  73.6854789 142.9397628
 129.2544599  76.5813217 141.6167677 127.9623039  75.9275211 142.6840313
 127.5624407  76.9991457 141.2842770 127.7519448  72.9240218 141.2167150
 126.2895256  73.9522270 141.2350774 127.4745857  74.0585068 142.5836063
 132.3339904  74.1184292 138.6059391 133.8181579  73.3623141 139.2507570
 132.5073253  74.3547113 141.1123684 132.5037374  72.6044533 141.2915830
 130.4366078  74.3565210 140.6540000 131.7120000  71.0000000 140.8260000
 128.2310000  76.6200000 149.6230000 128.6690000  76.2980000 148.3050000
 130.1856870  76.4310422 148.2370128 130.7918325  75.5304892 149.1612661
 127.2610000  76.5030000 149.6030000 128.1891500  76.9810745 147.5979185
 128.3604998  75.2698257 148.0919032 130.5017786  77.4439699 148.5080657
 130.5538866  76.1980970 147.2344997 130.3572520  75.7153657 150.0168065
 130.1630000  73.8360000 155.0460000 128.1090000  74.9830000 153.9300000
 128.2199214  76.2161885 154.8249740 127.3448707  73.8978749 154.6747234
 132.7248790  73.3055784 152.3937728 132.1582276  73.4250000 153.8190000
 130.7410000  73.4250000 153.8190000 130.8620000  72.4530000 153.8500000
 130.3371057  72.8761082 154.5462381 129.9433487  73.6854789 156.1047628
 129.2544599  76.5813217 154.7817677 127.9623039  75.9275211 155.8490313
 127.5624407  76.9991457 154.4492770 127.7519448  72.9240218 154.3817150
 126.2895256  73.9522270 154.4000774 127.4745857  74.0585068 155.7486063
 132.3339904  74.1184292 151.7709391 133.8181579  73.3623141 152.4157570
 132.5073253  74.3547113 154.2773684 132.5037374  72.6044533 154.4565830
 130.4366078  74.3565210 153.8190000 131.7120000  71.0000000 153.9910000
 128.2310000  76.6200000 162.7880000 128.6690000  76.2980000 161.4700000
 130.1856870  76.4310422 161.4020128 130.7918325  75.5304892 162.3262661
 127.2610000  76.5030000 162.7680000 128.1891500  76.9810745 160.7629185
 128.3604998  75.2698257 161.2569032 130.5017786  77.4439699 161.6730657
 130.5538866  76.1980970 160.3994997 130.3572520  75.7153657 163.1818065
 130.1630000  73.8360000 168.2110000 128.1090000  74.9830000 167.0950000
 128.2199214  76.2161885 167.9899740 127.3448707  73.8978749 167.8397234
 132.7248790  73.3055784 165.5587728 132.1582276  73.4250000 166.9840000
 130.7410000  73.4250000 166.9840000 130.8620000  72.4530000 167.0150000
 130.3371057  72.8761082 167.7112381 129.9433487  73.6854789 169.2697628
 129.2544599  76.5813217 167.9467677 127.9623039  75.9275211 169.0140313
 127.5624407  76.9991457 167.6142770 127.7519448  72.9240218 167.5467150
 126.2895256  73.9522270 167.5650774 127.4745857  74.0585068 168.9136063
 132.3339904  74.1184292 164.9359391 133.8181579  73.3623141 165.5807570
 132.5073253  74.3547113 167.4423684 132.5037374  72.6044533 167.6215830
 130.4366078  74.3565210 166.9840000 131.7120000  71.0000000 167.1560000
 128.2310000  76.6200000 175.9530000 128.6690000  76.2980000 174.6350000
 130.1856870  76.4310422 174.5670128 130.7918325  75.5304892 175.4912661
 127.2610000  76.5030000 175.9330000 128.1891500  76.9810745 173.9279185
 128.3604998  75.2698257 174.4219032 130.5017786  77.4439699 174.8380657
 130.5538866  76.1980970 173.5644997 130.3572520  75.7153657 176.3468065
 130.1630000  73.8360000 181.3770000 128.1090000  74.9830000 180.2610000
 128.2199214  76.2161885 181.1559740 127.3448707  73.8978749 181.0057234
 132.7248790  73.3055784 178.7247728 132.1582276  73.4250000 180.1500000
 130.7410000  73.4250000 180.1500000 130.8620000  72.4530000 180.1810000
 130.3371057  72.8761082 180.8772381 129.9433487  73.6854789 182.4357628
 129.2544599  76.5813217 181.1127677 127.9623039  75.9275211 182.1800313
 127.5624407  76.9991457 180.7802770 127.7519448  72.9240218 180.7127150
 126.2895256  73.9522270 180.7310774 127.4745857  74.0585068 182.0796063
 132.3339904  74.1184292 178.1019391 133.8181579  73.3623141 178.7467570
 132.5073253  74.3547113 180.6083684 132.5037374  72.6044533 180.7875830
 130.4366078  74.3565210 180.1500000 131.7120000  71.0000000 180.3220000
 128.2310000  76.6200000 189.1190000 128.6690000  76.2980000 187.8010000
 130.1856870  76.4310422 187.7330128 130.7918325  75.5304892 188.6572661
 127.2610000  76.5030000 189.0990000 128.1891500  76.9810745 187.0939185
 128.3604998  75.2698257 187.5879032 130.5017786  77.4439699 188.0040657
 130.5538866  76.1980970 186.7304997 130.3572520  75.7153657 189.5128065
 130.1630000  73.8360000 194.5420000 128.1090000  74.9830000 193.4260000
 128.2199214  76.2161885 194.3209740 127.3448707  73.8978749 194.1707234
 132.7248790  73.3055784 191.8897728 132.1582276  73.4250000 193.3150000
 130.7410000  73.4250000 193.3150000 130.8620000  72.4530000 193.3460000
 130.3371057  72.8761082 194.0422381 129.9433487  73.6854789 195.6007628
 129.2544599  76.5813217 194.2777677 127.9623039  75.9275211 195.3450313
 127.5624407  76.9991457 193.9452770 127.7519448  72.9240218 193.8777150
 126.2895256  73.9522270 193.8960774 127.4745857  74.0585068 195.2446063
 132.3339904  74.1184292 191.2669391 133.8181579  73.3623141 191.9117570
 132.5073253  74.3547113 193.7733684 132.5037374  72.6044533 193.9525830
 130.4366078  74.3565210 193.3150000 131.7120000  71.0000000 193.4870000
 128.2310000  76.6200000 202.2840000 128.6690000  76.2980000 200.9660000
 130.1856870  76.4310422 200.8980128 130.7918325  75.5304892 201.8222661
 127.2610000  76.5030000 202.2640000 128.1891500  76.9810745 200.2589185
 128.3604998  75.2698257 200.7529032 130.5017786  77.4439699 201.1690657
 130.5538866  76.1980970 199.8954997 130.3572520  75.7153657 202.6778065
 130.1630000  81.1520000  76.0550000 128.1090000  82.2990000  74.9390000
 128.2199214  83.5321885  75.8339740 127.3448707  81.2138749  75.6837234
 132.7248790  80.6215784  73.4027728 132.1582276  80.7410000  74.8280000
 130.7410000  80.7410000  74.8280000 130.8620000  79.7690000  74.8590000
 130.3371057  80.1921082  75.5552381 129.9433487  81.0014789  77.1137628
 129.2544599  83.8973217  75.7907677 127.9623039  83.2435211  76.8580313
 127.5624407  84.3151457  75.4582770 127.7519448  80.2400218  75.3907150
 126.2895256  81.2682270  75.4090774 127.4745857  81.3745068  76.7576063
 132.3339904  81.4344292  72.7799391 133.8181579  80.6783141  73.4247570
 132.5073253  81.6707113  75.2863684 132.5037374  79.9204533  75.4655830
 130.4366078  81.6725210  74.8280000 131.7120000  78.3160000  75.0000000
 128.2310000  83.9360000  83.7970000 128.6690000  83.6140000  82.4790000
 130.1856870  83.7470422  82.4110128 130.7918325  82.8464892  83.3352661
 127.2610000  83.8190000  83.7770000 128.1891500  84.2970745  81.7719185
 128.3604998  82.5858257  82.2659032 130.5017786  84.7599699  82.6820657
 130.5538866  83.5140970  81.4084997 130.3572520  83.0313657  84.1908065
 130.1630000  81.1520000  89.2200000 128.1090000  82.2990000  88.1040000
 128.2199214  83.5321885  88.9989740 127.3448707  81.2138749  88.8487234
 132.7248790  80.6215784  86.5677728 132.1582276  80.7410000  87.9930000
 130.7410000  80.7410000  87.9930000 130.8620000  79.7690000  88.0240000
 130.3371057  80.1921082  88.7202381 129.9433487  81.0014789  90.2787628
 129.2544599  83.8973217  88.9557677 127.9623039  83.2435211  90.0230313
 127.5624407  84.3151457  88.6232770 127.7519448  80.2400218  88.5557150
 126.2895256  81.2682270  88.5740774 127.4745857  81.3745068  89.9226063
 132.3339904  81.4344292  85.9449391 133.8181579  80.6783141  86.5897570
 132.5073253  81.6707113  88.4513684 132.5037374  79.9204533  88.6305830
 130.4366078  81.6725210  87.9930000 131.7120000  78.3160000  88.1650000
 128.2310000  83.9360000  96.9620000 128.6690000  83.6140000  95.6440000
 130.1856870  83.7470422  95.5760128 130.7918325  82.8464892  96.5002661
 127.2610000  83.8190000  96.9420000 128.1891500  84.2970745  94.9369185
 128.3604998  82.5858257  95.4309032 130.5017786  84.7599699  95.8470657
 130.5538866  83.5140970  94.5734997 130.3572520  83.0313657  97.3558065
 130.1630000  81.1520000 102.3850000 128.1090000  82.2990000 101.2690000
 128.2199214  83.5321885 102.1639740 127.3448707  81.2138749 102.0137234
 132.7248790  80.6215784  99.7327728 132.1582276  80.7410000 101.1580000
 130.7410000  80.7410000 101.1580000 130.8620000  79.7690000 101.1890000
 130.3371057  80.1921082 101.8852381 129.9433487  81.0014789 103.4437628
 129.2544599  83.8973217 102.1207677 127.9623039  83.2435211 103.1880313
 127.5624407  84.3151457 101.7882770 127.7519448  80.2400218 101.7207150
 126.2895256  81.2682270 101.7390774 127.4745857  81.3745068 103.0876063
 132.3339904  81.4344292  99.1099391 133.8181579  80.6783141  99.7547570
 132.5073253  81.6707113 101.6163684 132.5037374  79.9204533 101.7955830
 130.4366078  81.6725210 101.1580000 131.7120000  78.3160000 101.3300000
 128.2310000  83.9360000 110.1270000 128.6690000  83.6140000 108.8090000
 130.1856870  83.7470422 108.7410128 130.7918325  82.8464892 109.6652661
 127.2610000  83.8190000 110.1070000 128.1891500  84.2970745 108.1019185
 128.3604998  82.5858257 108.5959032 130.5017786  84.7599699 109.0120657
 130.5538866  83.5140970 107.7384997 130.3572520  83.0313657 110.5208065
 130.1630000  81.1520000 115.5510000 128.1090000  82.2990000 114.4350000
 128.2199214  83.5321885 115.3299740 127.3448707  81.2138749 115.1797234
 132.7248790  80.6215784 112.8987728 132.1582276  80.7410000 114.3240000
 130.7410000  80.7410000 114.3240000 130.8620000  79.7690000 114.3550000
 130.3371057  80.1921082 115.0512381 129.9433487  81.0014789 116.6097628
 129.2544599  83.8973217 115.2867677 127.9623039  83.2435211 116.3540313
 127.5624407  84.3151457 114.9542770 127.7519448  80.2400218 114.8867150
 126.2895256  81.2682270 114.9050774 127.4745857  81.3745068 116.2536063
 132.3339904  81.4344292 112.2759391 133.8181579  80.6783141 112.9207570
 132.5073253  81.6707113 114.7823684 132.5037374  79.9204533 114.9615830
 130.4366078  81.6725210 114.3240000 131.7120000  78.3160000 114.4960000
 128.2310000  83.9360000 123.2930000 128.6690000  83.6140000 121.9750000
 130.1856870  83.7470422 121.9070128 130.7918325  82.8464892 122.8312661
 127.2610000  83.8190000 123.2730000 128.1891500  84.2970745 121.2679185
 128.3604998  82.5858257 121.7619032 130.5017786  84.7599699 122.1780657
 130.5538866  83.5140970 120.9044997 130.3572520  83.0313657 123.6868065
 130.1630000  81.1520000 128.7160000 128.1090000  82.2990000 127.6000000
 128.2199214  83.5321885 128.4949740 127.3448707  81.2138749 128.3447234
 132.7248790  80.6215784 126.0637728 132.1582276  80.7410000 127.4890000
 130.7410000  80.7410000 127.4890000 130.8620000  79.7690000 127.5200000
 130.3371057  80.1921082 128.2162381 129.9433487  81.0014789 129.7747628
 129.2544599  83.8973217 128.4517677 127.9623039  83.2435211 129.5190313
 127.5624407  84.3151457 128.1192770 127.7519448  80.2400218 128.0517150
 126.2895256  81.2682270 128.0700774 127.4745857  81.3745068 129.4186063
 132.3339904  81.4344292 125.4409391 133.8181579  80.6783141 126.0857570
 132.5073253  81.6707113 127.9473684 132.5037374  79.9204533 128.1265830
 130.4366078  81.6725210 127.4890000 131.7120000  78.3160000 127.6610000
 128.2310000  83.9360000 136.4580000 128.6690000  83.6140000 135.1400000
 130.1856870  83.7470422 135.0720128 130.7918325  82.8464892 135.9962661
 127.2610000  83.8190000 136.4380000 128.1891500  84.2970745 134.4329185
 128.3604998  82.5858257 134.9269032 130.5017786  84.7599699 135.3430657
 130.5538866  83.5140970 134.0694997 130.3572520  83.0313657 136.8518065
 130.1630000  81.1520000 141.8810000 128.1090000  82.2990000 140.7650000
 128.2199214  83.5321885 141.6599740 127.3448707  81.2138749 141.5097234
 132.7248790  80.6215784 139.2287728 132.1582276  80.7410000 140.6540000
 130.7410000  80.7410000 140.6540000 130.8620000  79.7690000 140.6850000
 130.3371057  80.1921082 141.3812381 129.9433487  81.0014789 142.9397628
 129.2544599  83.8973217 141.6167677 127.9623039  83.2435211 142.6840313
 127.5624407  84.3151457 141.2842770 127.7519448  80.2400218 141.2167150
 126.2895256  81.2682270 141.2350774 127.4745857  81.3745068 142.5836063
 132.3339904  81.4344292 138.6059391 133.8181579  80.6783141 139.2507570
 132.5073253  81.6707113 141.1123684 132.5037374  79.9204533 141.2915830
 130.4366078  81.6725210 140.6540000 131.7120000  78.3160000 140.8260000
 128.2310000  83.9360000 149.6230000 128.6690000  83.6140000 148.3050000
 130.1856870  83.7470422 148.2370128 130.7918325  82.8464892 149.1612661
 127.2610000  83.8190000 149.6030000 128.1891500  84.2970745 147.5979185
 128.3604998  82.5858257 148.0919032 130.5017786  84.7599699 148.5080657
 130.5538866  83.5140970 147.2344997 130.3572520  83.0313657 150.0168065
 130.1630000  81.1520000 155.0460000 128.1090000  82.2990000 153.9300000
 128.2199214  83.5321885 154.8249740 127.3448707  81.2138749 154.6747234
 132.7248790  80.6215784 152.3937728 132.1582276  80.7410000 153.8190000
 130.7410000  80.7410000 153.8190000 130.8620000  79.7690000 153.8500000
 130.3371057  80.1921082 154.5462381 129.9433487  81.0014789 156.1047628
 129.2544599  83.8973217 154.7817677 127.9623039  83.2435211 155.8490313
 127.5624407  84.3151457 154.4492770 127.7519448  80.2400218 154.3817150
 126.2895256  81.2682270 154.4000774 127.4745857  81.3745068 155.7486063
 132.3339904  81.4344292 151.7709391 133.8181579  80.6783141 152.4157570
 132.5073253  81.6707113 154.2773684 132.5037374  79.9204533 154.4565830
 130.4366078  81.6725210 153.8190000 131.7120000  78.3160000 153.9910000
 128.2310000  83.9360000 162.7880000 128.6690000  83.6140000 161.4700000
 130.1856870  83.7470422 161.4020128 130.7918325  82.8464892 162.3262661
 127.2610000  83.8190000 162.7680000 128.1891500  84.2970745 160.7629185
 128.3604998  82.5858257 161.2569032 130.5017786  84.7599699 161.6730657
 130.5538866  83.5140970 160.3994997 130.3572520  83.0313657 163.1818065
 130.1630000  81.1520000 168.2110000 128.1090000  82.2990000 167.0950000
 128.2199214  83.5321885 167.9899740 127.3448707  81.2138749 167.8397234
 132.7248790  80.6215784 165.5587728 132.1582276  80.7410000 166.9840000
 130.7410000  80.7410000 166.9840000 130.8620000  79.7690000 167.0150000
 130.3371057  80.1921082 167.7112381 129.9433487  81.0014789 169.2697628
 129.2544599  83.8973217 167.9467677 127.9623039  83.2435211 169.0140313
 127.5624407  84.3151457 167.6142770 127.7519448  80.2400218 167.5467150
 126.2895256  81.2682270 167.5650774 127.4745857  81.3745068 168.9136063
 132.3339904  81.4344292 164.9359391 133.8181579  80.6783141 165.5807570
 132.5073253  81.6707113 167.4423684 132.5037374  79.9204533 167.6215830
 130.4366078  81.6725210 166.9840000 131.7120000  78.3160000 167.1560000
 128.2310000  83.9360000 175.9530000 128.6690000  83.6140000 174.6350000
 130.1856870  83.7470422 174.5670128 130.7918325  82.8464892 175.4912661
 127.2610000  83.8190000 175.9330000 128.1891500  84.2970745 173.9279185
 128.3604998  82.5858257 174.4219032 130.5017786  84.7599699 174.8380657
 130.5538866  83.5140970 173.5644997 130.3572520  83.0313657 176.3468065
 130.1630000  81.1520000 181.3770000 128.1090000  82.2990000 180.2610000
 128.2199214  83.5321885 181.1559740 127.3448707  81.2138749 181.0057234
 132.7248790  80.6215784 178.7247728 132.1582276  80.7410000 180.1500000
 130.7410000  80.7410000 180.1500000 130.8620000  79.7690000 180.1810000
 130.3371057  80.1921082 180.8772381 129.9433487  81.0014789 182.4357628
 129.2544599  83.8973217 181.1127677 127.9623039  83.2435211 182.1800313
 127.5624407  84.3151457 180.7802770 127.7519448  80.2400218 180.7127150
 126.2895256  81.2682270 180.7310774 127.4745857  81.3745068 182.0796063
 132.3339904  81.4344292 178.1019391 133.8181579  80.6783141 178.7467570
 132.5073253  81.6707113 180.6083684 132.5037374  79.9204533 180.7875830
 130.4366078  81.6725210 180.1500000 131.7120000  78.3160000 180.3220000
 128.2310000  83.9360000 189.1190000 128.6690000  83.6140000 187.8010000
 130.1856870  83.7470422 187.7330128 130.7918325  82.8464892 188.6572661
 127.2610000  83.8190000 189.0990000 128.1891500  84.2970745 187.0939185
 128.3604998  82.5858257 187.5879032 130.5017786  84.7599699 188.0040657
 130.5538866  83.5140970 186.7304997 130.3572520  83.0313657 189.5128065
 130.1630000  81.1520000 194.5420000 128.1090000  82.2990000 193.4260000
 128.2199214  83.5321885 194.3209740 127.3448707  81.2138749 194.1707234
 132.7248790  80.6215784 191.8897728 132.1582276  80.7410000 193.3150000
 130.7410000  80.7410000 193.3150000 130.8620000  79.7690000 193.3460000
 130.3371057  80.1921082 194.0422381 129.9433487  81.0014789 195.6007628
 129.2544599  83.8973217 194.2777677 127.9623039  83.2435211 195.3450313
 127.5624407  84.3151457 193.9452770 127.7519448  80.2400218 193.8777150
 126.2895256  81.2682270 193.8960774 127.4745857  81.3745068 195.2446063
 132.3339904  81.4344292 191.2669391 133.8181579  80.6783141 191.9117570
 132.5073253  81.6707113 193.7733684 132.5037374  79.9204533 193.9525830
 130.4366078  81.6725210 193.3150000 131.7120000  78.3160000 193.4870000
 128.2310000  83.9360000 202.2840000 128.6690000  83.6140000 200.9660000
 130.1856870  83.7470422 200.8980128 130.7918325  82.8464892 201.8222661
 127.2610000  83.8190000 202.2640000 128.1891500  84.2970745 200.2589185
 128.3604998  82.5858257 200.7529032 130.5017786  84.7599699 201.1690657
 130.5538866  83.5140970 199.8954997 130.3572520  83.0313657 202.6778065
 130.1630000  88.4690000  76.0550000 128.1090000  89.6160000  74.9390000
 128.2199214  90.8491885  75.8339740 127.3448707  88.5308749  75.6837234
 132.7248790  87.9385784  73.4027728 132.1582276  88.0580000  74.8280000
 130.7410000  88.0580000  74.8280000 130.8620000  87.0860000  74.8590000
 130.3371057  87.5091082  75.5552381 129.9433487  88.3184789  77.1137628
 129.2544599  91.2143217  75.7907677 127.9623039  90.5605211  76.8580313
 127.5624407  91.6321457  75.4582770 127.7519448  87.5570218  75.3907150
 126.2895256  88.5852270  75.4090774 127.4745857  88.6915068  76.7576063
 132.3339904  88.7514292  72.7799391 133.8181579  87.9953141  73.4247570
 132.5073253  88.9877113  75.2863684 132.5037374  87.2374533  75.4655830
 130.4366078  88.9895210  74.8280000 131.7120000  85.6330000  75.0000000
 128.2310000  91.2530000  83.7970000 128.6690000  90.9310000  82.4790000
 130.1856870  91.0640422  82.4110128 130.7918325  90.1634892  83.3352661
 127.2610000  91.1360000  83.7770000 128.1891500  91.6140745  81.7719185
 128.3604998  89.9028257  82.2659032 130.5017786  92.0769699  82.6820657
 130.5538866  90.8310970  81.4084997 130.3572520  90.3483657  84.1908065
 130.1630000  88.4690000  89.2200000 128.1090000  89.6160000  88.1040000
 128.2199214  90.8491885  88.9989740 127.3448707  88.5308749  88.8487234
 132.7248790  87.9385784  86.5677728 132.1582276  88.0580000  87.9930000
 130.7410000  88.0580000  87.9930000 130.8620000  87.0860000  88.0240000
 130.3371057  87.5091082  88.7202381 129.9433487  88.3184789  90.2787628
 129.2544599  91.2143217  88.9557677 127.9623039  90.5605211  90.0230313
 127.5624407  91.6321457  88.6232770 127.7519448  87.5570218  88.5557150
 126.2895256  88.5852270  88.5740774 127.4745857  88.6915068  89.9226063
 132.3339904  88.7514292  85.9449391 133.8181579  87.9953141  86.5897570
 132.5073253  88.9877113  88.4513684 132.5037374  87.2374533  88.6305830
 130.4366078  88.9895210  87.9930000 131.7120000  85.6330000  88.1650000
 128.2310000  91.2530000  96.9620000 128.6690000  90.9310000  95.6440000
 130.1856870  91.0640422  95.5760128 130.7918325  90.1634892  96.5002661
 127.2610000  91.1360000  96.9420000 128.1891500  91.6140745  94.9369185
 128.3604998  89.9028257  95.4309032 130.5017786  92.0769699  95.8470657
 130.5538866  90.8310970  94.5734997 130.3572520  90.3483657  97.3558065
 130.1630000  88.4690000 102.3850000 128.1090000  89.6160000 101.2690000
 128.2199214  90.8491885 102.1639740 127.3448707  88.5308749 102.0137234
 132.7248790  87.9385784  99.7327728 132.1582276  88.0580000 101.1580000
 130.7410000  88.0580000 101.1580000 130.8620000  87.0860000 101.1890000
 130.3371057  87.5091082 101.8852381 129.9433487  88.3184789 103.4437628
 129.2544599  91.2143217 102.1207677 127.9623039  90.5605211 103.1880313
 127.5624407  91.6321457 101.7882770 127.7519448  87.5570218 101.7207150
 126.2895256  88.5852270 101.7390774 127.4745857  88.6915068 103.0876063
 132.3339904  88.7514292  99.1099391 133.8181579  87.9953141  99.7547570
 132.5073253  88.9877113 101.6163684 132.5037374  87.2374533 101.7955830
 130.4366078  88.9895210 101.1580000 131.7120000  85.6330000 101.3300000
 128.2310000  91.2530000 110.1270000 128.6690000  90.9310000 108.8090000
 130.1856870  91.0640422 108.7410128 130.7918325  90.1634892 109.6652661
 127.2610000  91.1360000 110.1070000 128.1891500  91.6140745 108.1019185
 128.3604998  89.9028257 108.5959032 130.5017786  92.0769699 109.0120657
 130.5538866  90.8310970 107.7384997 130.3572520  90.3483657 110.5208065
 130.1630000  88.4690000 115.5510000 128.1090000  89.6160000 114.4350000
 128.2199214  90.8491885 115.3299740 127.3448707  88.5308749 115.1797234
 132.7248790  87.9385784 112.8987728 132.1582276  88.0580000 114.3240000
 130.7410000  88.0580000 114.3240000 130.8620000  87.0860000 114.3550000
 130.3371057  87.5091082 115.0512381 129.9433487  88.3184789 116.6097628
 129.2544599  91.2143217 115.2867677 127.9623039  90.5605211 116.3540313
 127.5624407  91.6321457 114.9542770 127.7519448  87.5570218 114.8867150
 126.2895256  88.5852270 114.9050774 127.4745857  88.6915068 116.2536063
 132.3339904  88.7514292 112.2759391 133.8181579  87.9953141 112.9207570
 132.5073253  88.9877113 114.7823684 132.5037374  87.2374533 114.9615830
 130.4366078  88.9895210 114.3240000 131.7120000  85.6330000 114.4960000
 128.2310000  91.2530000 123.2930000 128.6690000  90.9310000 121.9750000
 130.1856870  91.0640422 121.9070128 130.7918325  90.1634892 122.8312661
 127.2610000  91.1360000 123.2730000 128.1891500  91.6140745 121.2679185
 128.3604998  89.9028257 121.7619032 130.5017786  92.0769699 122.1780657
 130.5538866  90.8310970 120.9044997 130.3572520  90.3483657 123.6868065
 130.1630000  88.4690000 128.7160000 128.1090000  89.6160000 127.6000000
 128.2199214  90.8491885 128.4949740 127.3448707  88.5308749 128.3447234
 132.7248790  87.9385784 126.0637728 132.1582276  88.0580000 127.4890000
 130.7410000  88.0580000 127.4890000 130.8620000  87.0860000 127.5200000
 130.3371057  87.5091082 128.2162381 129.9433487  88.3184789 129.7747628
 129.2544599  91.2143217 128.4517677 127.9623039  90.5605211 129.5190313
 127.5624407  91.6321457 128.1192770 127.7519448  87.5570218 128.0517150
 126.2895256  88.5852270 128.0700774 127.4745857  88.6915068 129.4186063
 132.3339904  88.7514292 125.4409391 133.8181579  87.9953141 126.0857570
 132.5073253  88.9877113 127.9473684 132.5037374  87.2374533 128.1265830
 130.4366078  88.9895210 127.4890000 131.7120000  85.6330000 127.6610000
 128.2310000  91.2530000 136.4580000 128.6690000  90.9310000 135.1400000
 130.1856870  91.0640422 135.0720128 130.7918325  90.1634892 135.9962661
 127.2610000  91.1360000 136.4380000 128.1891500  91.6140745 134.4329185
 128.3604998  89.9028257 134.9269032 130.5017786  92.0769699 135.3430657
 130.5538866  90.8310970 134.0694997 130.3572520  90.3483657 136.8518065
 130.1630000  88.4690000 141.8810000 128.1090000  89.6160000 140.7650000
 128.2199214  90.8491885 141.6599740 127.3448707  88.5308749 141.5097234
 132.7248790  87.9385784 139.2287728 132.1582276  88.0580000 140.6540000
 130.7410000  88.0580000 140.6540000 130.8620000  87.0860000 140.6850000
 130.3371057  87.5091082 141.3812381 129.9433487  88.3184789 142.9397628
 129.2544599  91.2143217 141.6167677 127.9623039  90.5605211 142.6840313
 127.5624407  91.6321457 141.2842770 127.7519448  87.5570218 141.2167150
 126.2895256  88.5852270 141.2350774 127.4745857  88.6915068 142.5836063
 132.3339904  88.7514292 138.6059391 133.8181579  87.9953141 139.2507570
 132.5073253  88.9877113 141.1123684 132.5037374  87.2374533 141.2915830
 130.4366078  88.9895210 140.6540000 131.7120000  85.6330000 140.8260000
 128.2310000  91.2530000 149.6230000 128.6690000  90.9310000 148.3050000
 130.1856870  91.0640422 148.2370128 130.7918325  90.1634892 149.1612661
 127.2610000  91.1360000 149.6030000 128.1891500  91.6140745 147.5979185
 128.3604998  89.9028257 148.0919032 130.5017786  92.0769699 148.5080657
 130.5538866  90.8310970 147.2344997 130.3572520  90.3483657 150.0168065
 130.1630000  88.4690000 155.0460000 128.1090000  89.6160000 153.9300000
 128.2199214  90.8491885 154.8249740 127.3448707  88.5308749 154.6747234
 132.7248790  87.9385784 152.3937728 132.1582276  88.0580000 153.8190000
 130.7410000  88.0580000 153.8190000 130.8620000  87.0860000 153.8500000
 130.3371057  87.5091082 154.5462381 129.9433487  88.3184789 156.1047628
 129.2544599  91.2143217 154.7817677 127.9623039  90.5605211 155.8490313
 127.5624407  91.6321457 154.4492770 127.7519448  87.5570218 154.3817150
 126.2895256  88.5852270 154.4000774 127.4745857  88.6915068 155.7486063
 132.3339904  88.7514292 151.7709391 133.8181579  87.9953141 152.4157570
 132.5073253  88.9877113 154.2773684 132.5037374  87.2374533 154.4565830
 130.4366078  88.9895210 153.8190000 131.7120000  85.6330000 153.9910000
 128.2310000  91.2530000 162.7880000 128.6690000  90.9310000 161.4700000
 130.1856870  91.0640422 161.4020128 130.7918325  90.1634892 162.3262661
 127.2610000  91.1360000 162.7680000 128.1891500  91.6140745 160.7629185
 128.3604998  89.9028257 161.2569032 130.5017786  92.0769699 161.6730657
 130.5538866  90.8310970 160.3994997 130.3572520  90.3483657 163.1818065
 130.1630000  88.4690000 168.2110000 128.1090000  89.6160000 167.0950000
 128.2199214  90.8491885 167.9899740 127.3448707  88.5308749 167.8397234
 132.7248790  87.9385784 165.5587728 132.1582276  88.0580000 166.9840000
 130.7410000  88.0580000 166.9840000 130.8620000  87.0860000 167.0150000
 130.3371057  87.5091082 167.7112381 129.9433487  88.3184789 169.2697628
 129.2544599  91.2143217 167.9467677 127.9623039  90.5605211 169.0140313
 127.5624407  91.6321457 167.6142770 127.7519448  87.5570218 167.5467150
 126.2895256  88.5852270 167.5650774 127.4745857  88.6915068 168.9136063
 132.3339904  88.7514292 164.9359391 133.8181579  87.9953141 165.5807570
 132.5073253  88.9877113 167.4423684 132.5037374  87.2374533 167.6215830
 130.4366078  88.9895210 166.9840000 131.7120000  85.6330000 167.1560000
 128.2310000  91.2530000 175.9530000 128.6690000  90.9310000 174.6350000
 130.1856870  91.0640422 174.5670128 130.7918325  90.1634892 175.4912661
 127.2610000  91.1360000 175.9330000 128.1891500  91.6140745 173.9279185
 128.3604998  89.9028257 174.4219032 130.5017786  92.0769699 174.8380657
 130.5538866  90.8310970 173.5644997 130.3572520  90.3483657 176.3468065
 130.1630000  88.4690000 181.3770000 128.1090000  89.6160000 180.2610000
 128.2199214  90.8491885 181.1559740 127.3448707  88.5308749 181.0057234
 132.7248790  87.9385784 178.7247728 132.1582276  88.0580000 180.1500000
 130.7410000  88.0580000 180.1500000 130.8620000  87.0860000 180.1810000
 130.3371057  87.5091082 180.8772381 129.9433487  88.3184789 182.4357628
 129.2544599  91.2143217 181.1127677 127.9623039  90.5605211 182.1800313
 127.5624407  91.6321457 180.7802770 127.7519448  87.5570218 180.7127150
 126.2895256  88.5852270 180.7310774 127.4745857  88.6915068 182.0796063
 132.3339904  88.7514292 178.1019391 133.8181579  87.9953141 178.7467570
 132.5073253  88.9877113 180.6083684 132.5037374  87.2374533 180.7875830
 130.4366078  88.9895210 180.1500000 131.7120000  85.6330000 180.3220000
 128.2310000  91.2530000 189.1190000 128.6690000  90.9310000 187.8010000
 130.1856870  91.0640422 187.7330128 130.7918325  90.1634892 188.6572661
 127.2610000  91.1360000 189.0990000 128.1891500  91.6140745 187.0939185
 128.3604998  89.9028257 187.5879032 130.5017786  92.0769699 188.0040657
 130.5538866  90.8310970 186.7304997 130.3572520  90.3483657 189.5128065
 130.1630000  88.4690000 194.5420000 128.1090000  89.6160000 193.4260000
 128.2199214  90.8491885 194.3209740 127.3448707  88.5308749 194.1707234
 132.7248790  87.9385784 191.8897728 132.1582276  88.0580000 193.3150000
 130.7410000  88.0580000 193.3150000 130.8620000  87.0860000 193.3460000
 130.3371057  87.5091082 194.0422381 129.9433487  88.3184789 195.6007628
 129.2544599  91.2143217 194.2777677 127.9623039  90.5605211 195.3450313
 127.5624407  91.6321457 193.9452770 127.7519448  87.5570218 193.8777150
 126.2895256  88.5852270 193.8960774 127.4745857  88.6915068 195.2446063
 132.3339904  88.7514292 191.2669391 133.8181579  87.9953141 191.9117570
 132.5073253  88.9877113 193.7733684 132.5037374  87.2374533 193.9525830
 130.4366078  88.9895210 193.3150000 131.7120000  85.6330000 193.4870000
 128.2310000  91.2530000 202.2840000 128.6690000  90.9310000 200.9660000
 130.1856870  91.0640422 200.8980128 130.7918325  90.1634892 201.8222661
 127.2610000  91.1360000 202.2640000 128.1891500  91.6140745 200.2589185
 128.3604998  89.9028257 200.7529032 130.5017786  92.0769699 201.1690657
 130.5538866  90.8310970 199.8954997 130.3572520  90.3483657 202.6778065
 130.1630000  95.7850000  76.0550000 128.1090000  96.9320000  74.9390000
 128.2199214  98.1651885  75.8339740 127.3448707  95.8468749  75.6837234
 132.7248790  95.2545784  73.4027728 132.1582276  95.3740000  74.8280000
 130.7410000  95.3740000  74.8280000 130.8620000  94.4020000  74.8590000
 130.3371057  94.8251082  75.5552381 129.9433487  95.6344789  77.1137628
 129.2544599  98.5303217  75.7907677 127.9623039  97.8765211  76.8580313
 127.5624407  98.9481457  75.4582770 127.7519448  94.8730218  75.3907150
 126.2895256  95.9012270  75.4090774 127.4745857  96.0075068  76.7576063
 132.3339904  96.0674292  72.7799391 133.8181579  95.3113141  73.4247570
 132.5073253  96.3037113  75.2863684 132.5037374  94.5534533  75.4655830
 130.4366078  96.3055210  74.8280000 131.7120000  92.9490000  75.0000000
 128.2310000  98.5690000  83.7970000 128.6690000  98.2470000  82.4790000
 130.1856870  98.3800422  82.4110128 130.7918325  97.4794892  83.3352661
 127.2610000  98.4520000  83.7770000 128.1891500  98.9300745  81.7719185
 128.3604998  97.2188257  82.2659032 130.5017786  99.3929699  82.6820657
 130.5538866  98.1470970  81.4084997 130.3572520  97.6643657  84.1908065
 130.1630000  95.7850000  89.2200000 128.1090000  96.9320000  88.1040000
 128.2199214  98.1651885  88.9989740 127.3448707  95.8468749  88.8487234
 132.7248790  95.2545784  86.5677728 132.1582276  95.3740000  87.9930000
 130.7410000  95.3740000  87.9930000 130.8620000  94.4020000  88.0240000
 130.3371057  94.8251082  88.7202381 129.9433487  95.6344789  90.2787628
 129.2544599  98.5303217  88.9557677 127.9623039  97.8765211  90.0230313
 127.5624407  98.9481457  88.6232770 127.7519448  94.8730218  88.5557150
 126.2895256  95.9012270  88.5740774 127.4745857  96.0075068  89.9226063
 132.3339904  96.0674292  85.9449391 133.8181579  95.3113141  86.5897570
 132.5073253  96.3037113  88.4513684 132.5037374  94.5534533  88.6305830
 130.4366078  96.3055210  87.9930000 131.7120000  92.9490000  88.1650000
 128.2310000  98.5690000  96.9620000 128.6690000  98.2470000  95.6440000
 130.1856870  98.3800422  95.5760128 130.7918325  97.4794892  96.5002661
 127.2610000  98.4520000  96.9420000 128.1891500  98.9300745  94.9369185
 128.3604998  97.2188257  95.4309032 130.5017786  99.3929699  95.8470657
 130.5538866  98.1470970  94.5734997 130.3572520  97.6643657  97.3558065
 130.1630000  95.7850000 102.3850000 128.1090000  96.9320000 101.2690000
 128.2199214  98.1651885 102.1639740 127.3448707  95.8468749 102.0137234
 132.7248790  95.2545784  99.7327728 132.1582276  95.3740000 101.1580000
 130.7410000  95.3740000 101.1580000 130.8620000  94.4020000 101.1890000
 130.3371057  94.8251082 101.8852381 129.9433487  95.6344789 103.4437628
 129.2544599  98.5303217 102.1207677 127.9623039  97.8765211 103.1880313
 127.5624407  98.9481457 101.7882770 127.7519448  94.8730218 101.7207150
 126.2895256  95.9012270 101.7390774 127.4745857  96.0075068 103.0876063
 132.3339904  96.0674292  99.1099391 133.8181579  95.3113141  99.7547570
 132.5073253  96.3037113 101.6163684 132.5037374  94.5534533 101.7955830
 130.4366078  96.3055210 101.1580000 131.7120000  92.9490000 101.3300000
 128.2310000  98.5690000 110.1270000 128.6690000  98.2470000 108.8090000
 130.1856870  98.3800422 108.7410128 130.7918325  97.4794892 109.6652661
 127.2610000  98.4520000 110.1070000 128.1891500  98.9300745 108.1019185
 128.3604998  97.2188257 108.5959032 130.5017786  99.3929699 109.0120657
 130.5538866  98.1470970 107.7384997 130.3572520  97.6643657 110.5208065
 130.1630000  95.7850000 115.5510000 128.1090000  96.9320000 114.4350000
 128.2199214  98.1651885 115.3299740 127.3448707  95.8468749 115.1797234
 132.7248790  95.2545784 112.8987728 132.1582276  95.3740000 114.3240000
 130.7410000  95.3740000 114.3240000 130.8620000  94.4020000 114.3550000
 130.3371057  94.8251082 115.0512381 129.9433487  95.6344789 116.6097628
 129.2544599  98.5303217 115.2867677 127.9623039  97.8765211 116.3540313
 127.5624407  98.9481457 114.9542770 127.7519448  94.8730218 114.8867150
 126.2895256  95.9012270 114.9050774 127.4745857  96.0075068 116.2536063
 132.3339904  96.0674292 112.2759391 133.8181579  95.3113141 112.9207570
 132.5073253  96.3037113 114.7823684 132.5037374  94.5534533 114.9615830
 130.4366078  96.3055210 114.3240000 131.7120000  92.9490000 114.4960000
 128.2310000  98.5690000 123.2930000 128.6690000  98.2470000 121.9750000
 130.1856870  98.3800422 121.9070128 130.7918325  97.4794892 122.8312661
 127.2610000  98.4520000 123.2730000 128.1891500  98.9300745 121.2679185
 128.3604998  97.2188257 121.7619032 130.5017786  99.3929699 122.1780657
 130.5538866  98.1470970 120.9044997 130.3572520  97.6643657 123.6868065
 130.1630000  95.7850000 128.7160000 128.1090000  96.9320000 127.6000000
 128.2199214  98.1651885 128.4949740 127.3448707  95.8468749 128.3447234
 132.7248790  95.2545784 126.0637728 132.1582276  95.3740000 127.4890000
 130.7410000  95.3740000 127.4890000 130.8620000  94.4020000 127.5200000
 130.3371057  94.8251082 128.2162381 129.9433487  95.6344789 129.7747628
 129.2544599  98.5303217 128.4517677 127.9623039  97.8765211 129.5190313
 127.5624407  98.9481457 128.1192770 127.7519448  94.8730218 128.0517150
 126.2895256  95.9012270 128.0700774 127.4745857  96.0075068 129.4186063
 132.3339904  96.0674292 125.4409391 133.8181579  95.3113141 126.0857570
 132.5073253  96.3037113 127.9473684 132.5037374  94.5534533 128.1265830
 130.4366078  96.3055210 127.4890000 131.7120000  92.9490000 127.6610000
 128.2310000  98.5690000 136.4580000 128.6690000  98.2470000 135.1400000
 130.1856870  98.3800422 135.0720128 130.7918325  97.4794892 135.9962661
 127.2610000  98.4520000 136.4380000 128.1891500  98.9300745 134.4329185
 128.3604998  97.2188257 134.9269032 130.5017786  99.3929699 135.3430657
 130.5538866  98.1470970 134.0694997 130.3572520  97.6643657 136.8518065
 130.1630000  95.7850000 141.8810000 128.1090000  96.9320000 140.7650000
 128.2199214  98.1651885 141.6599740 127.3448707  95.8468749 141.5097234
 132.7248790  95.2545784 139.2287728 132.1582276  95.3740000 140.6540000
 130.7410000  95.3740000 140.6540000 130.8620000  94.4020000 140.6850000
 130.3371057  94.8251082 141.3812381 129.9433487  95.6344789 142.9397628
 129.2544599  98.5303217 141.6167677 127.9623039  97.8765211 142.6840313
 127.5624407  98.9481457 141.2842770 127.7519448  94.8730218 141.2167150
 126.2895256  95.9012270 141.2350774 127.4745857  96.0075068 142.5836063
 132.3339904  96.0674292 138.6059391 133.8181579  95.3113141 139.2507570
 132.5073253  96.3037113 141.1123684 132.5037374  94.5534533 141.2915830
 130.4366078  96.3055210 140.6540000 131.7120000  92.9490000 140.8260000
 128.2310000  98.5690000 149.6230000 128.6690000  98.2470000 148.3050000
 130.1856870  98.3800422 148.2370128 130.7918325  97.4794892 149.1612661
 127.2610000  98.4520000 149.6030000 128.1891500  98.9300745 147.5979185
 128.3604998  97.2188257 148.0919032 130.5017786  99.3929699 148.5080657
 130.5538866  98.1470970 147.2344997 130.3572520  97.6643657 150.0168065
 130.1630000  95.7850000 155.0460000 128.1090000  96.9320000 153.9300000
 128.2199214  98.1651885 154.8249740 127.3448707  95.8468749 154.6747234
 132.7248790  95.2545784 152.3937728 132.1582276  95.3740000 153.8190000
 130.7410000  95.3740000 153.8190000 130.8620000  94.4020000 153.8500000
 130.3371057  94.8251082 154.5462381 129.9433487  95.6344789 156.1047628
 129.2544599  98.5303217 154.7817677 127.9623039  97.8765211 155.8490313
 127.5624407  98.9481457 154.4492770 127.7519448  94.8730218 154.3817150
 126.2895256  95.9012270 154.4000774 127.4745857  96.0075068 155.7486063
 132.3339904  96.0674292 151.7709391 133.8181579  95.3113141 152.4157570
 132.5073253  96.3037113 154.2773684 132.5037374  94.5534533 154.4565830
 130.4366078  96.3055210 153.8190000 131.7120000  92.9490000 153.9910000
 128.2310000  98.5690000 162.7880000 128.6690000  98.2470000 161.4700000
 130.1856870  98.3800422 161.4020128 130.7918325  97.4794892 162.3262661
 127.2610000  98.4520000 162.7680000 128.1891500  98.9300745 160.7629185
 128.3604998  97.2188257 161.2569032 130.5017786  99.3929699 161.6730657
 130.5538866  98.1470970 160.3994997 130.3572520  97.6643657 163.1818065
 130.1630000  95.7850000 168.2110000 128.1090000  96.9320000 167.0950000
 128.2199214  98.1651885 167.9899740 127.3448707  95.8468749 167.8397234
 132.7248790  95.2545784 165.5587728 132.1582276  95.3740000 166.9840000
 130.7410000  95.3740000 166.9840000 130.8620000  94.4020000 167.0150000
 130.3371057  94.8251082 167.7112381 129.9433487  95.6344789 169.2697628
 129.2544599  98.5303217 167.9467677 127.9623039  97.8765211 169.0140313
 127.5624407  98.9481457 167.6142770 127.7519448  94.8730218 167.5467150
 126.2895256  95.9012270 167.5650774 127.4745857  96.0075068 168.9136063
 132.3339904  96.0674292 164.9359391 133.8181579  95.3113141 165.5807570
 132.5073253  96.3037113 167.4423684 132.5037374  94.5534533 167.6215830
 130.4366078  96.3055210 166.9840000 131.7120000  92.9490000 167.1560000
 128.2310000  98.5690000 175.9530000 128.6690000  98.2470000 174.6350000
 130.1856870  98.3800422 174.5670128 130.7918325  97.4794892 175.4912661
 127.2610000  98.4520000 175.9330000 128.1891500  98.9300745 173.9279185
 128.3604998  97.2188257 174.4219032 130.5017786  99.3929699 174.8380657
 130.5538866  98.1470970 173.5644997 130.3572520  97.6643657 176.3468065
 130.1630000  95.7850000 181.3770000 128.1090000  96.9320000 180.2610000
 128.2199214  98.1651885 181.1559740 127.3448707  95.8468749 181.0057234
 132.7248790  95.2545784 178.7247728 132.1582276  95.3740000 180.1500000
 130.7410000  95.3740000 180.1500000 130.8620000  94.4020000 180.1810000
 130.3371057  94.8251082 180.8772381 129.9433487  95.6344789 182.4357628
 129.2544599  98.5303217 181.1127677 127.9623039  97.8765211 182.1800313
 127.5624407  98.9481457 180.7802770 127.7519448  94.8730218 180.7127150
 126.2895256  95.9012270 180.7310774 127.4745857  96.0075068 182.0796063
 132.3339904  96.0674292 178.1019391 133.8181579  95.3113141 178.7467570
 132.5073253  96.3037113 180.6083684 132.5037374  94.5534533 180.7875830
 130.4366078  96.3055210 180.1500000 131.7120000  92.9490000 180.3220000
 128.2310000  98.5690000 189.1190000 128.6690000  98.2470000 187.8010000
 130.1856870  98.3800422 187.7330128 130.7918325  97.4794892 188.6572661
 127.2610000  98.4520000 189.0990000 128.1891500  98.9300745 187.0939185
 128.3604998  97.2188257 187.5879032 130.5017786  99.3929699 188.0040657
 130.5538866  98.1470970 186.7304997 130.3572520  97.6643657 189.5128065
 130.1630000  95.7850000 194.5420000 128.1090000  96.9320000 193.4260000
 128.2199214  98.1651885 194.3209740 127.3448707  95.8468749 194.1707234
 132.7248790  95.2545784 191.8897728 132.1582276  95.3740000 193.3150000
 130.7410000  95.3740000 193.3150000 130.8620000  94.4020000 193.3460000
 130.3371057  94.8251082 194.0422381 129.9433487  95.6344789 195.6007628
 129.2544599  98.5303217 194.2777677 127.9623039  97.8765211 195.3450313
 127.5624407  98.9481457 193.9452770 127.7519448  94.8730218 193.8777150
 126.2895256  95.9012270 193.8960774 127.4745857  96.0075068 195.2446063
 132.3339904  96.0674292 191.2669391 133.8181579  95.3113141 191.9117570
 132.5073253  96.3037113 193.7733684 132.5037374  94.5534533 193.9525830
 130.4366078  96.3055210 193.3150000 131.7120000  92.9490000 193.4870000
 128.2310000  98.5690000 202.2840000 128.6690000  98.2470000 200.9660000
 130.1856870  98.3800422 200.8980128 130.7918325  97.4794892 201.8222661
 127.2610000  98.4520000 202.2640000 128.1891500  98.9300745 200.2589185
 128.3604998  97.2188257 200.7529032 130.5017786  99.3929699 201.1690657
 130.5538866  98.1470970 199.8954997 130.3572520  97.6643657 202.6778065
 130.1630000 103.1020000  76.0550000 128.1090000 104.2490000  74.9390000
 128.2199214 105.4821885  75.8339740 127.3448707 103.1638749  75.6837234
 132.7248790 102.5715784  73.4027728 132.1582276 102.6910000  74.8280000
 130.7410000 102.6910000  74.8280000 130.8620000 101.7190000  74.8590000
 130.3371057 102.1421082  75.5552381 129.9433487 102.9514789  77.1137628
 129.2544599 105.8473217  75.7907677 127.9623039 105.1935211  76.8580313
 127.5624407 106.2651457  75.4582770 127.7519448 102.1900218  75.3907150
 126.2895256 103.2182270  75.4090774 127.4745857 103.3245068  76.7576063
 132.3339904 103.3844292  72.7799391 133.8181579 102.6283141  73.4247570
 132.5073253 103.6207113  75.2863684 132.5037374 101.8704533  75.4655830
 130.4366078 103.6225210  74.8280000 131.7120000 100.2660000  75.0000000
 128.2310000 105.8860000  83.7970000 128.6690000 105.5640000  82.4790000
 130.1856870 105.6970422  82.4110128 130.7918325 104.7964892  83.3352661
 127.2610000 105.7690000  83.7770000 128.1891500 106.2470745  81.7719185
 128.3604998 104.5358257  82.2659032 130.5017786 106.7099699  82.6820657
 130.5538866 105.4640970  81.4084997 130.3572520 104.9813657  84.1908065
 130.1630000 103.1020000  89.2200000 128.1090000 104.2490000  88.1040000
 128.2199214 105.4821885  88.9989740 127.3448707 103.1638749  88.8487234
 132.7248790 102.5715784  86.5677728 132.1582276 102.6910000  87.9930000
 130.7410000 102.6910000  87.9930000 130.8620000 101.7190000  88.0240000
 130.3371057 102.1421082  88.7202381 129.9433487 102.9514789  90.2787628
 129.2544599 105.8473217  88.9557677 127.9623039 105.1935211  90.0230313
 127.5624407 106.2651457  88.6232770 127.7519448 102.1900218  88.5557150
 126.2895256 103.2182270  88.5740774 127.4745857 103.3245068  89.9226063
 132.3339904 103.3844292  85.9449391 133.8181579 102.6283141  86.5897570
 132.5073253 103.6207113  88.4513684 132.5037374 101.8704533  88.6305830
 130.4366078 103.6225210  87.9930000 131.7120000 100.2660000  88.1650000
 128.2310000 105.8860000  96.9620000 128.6690000 105.5640000  95.6440000
 130.1856870 105.6970422  95.5760128 130.7918325 104.7964892  96.5002661
 127.2610000 105.7690000  96.9420000 128.1891500 106.2470745  94.9369185
 128.3604998 104.5358257  95.4309032 130.5017786 106.7099699  95.8470657
 130.5538866 105.4640970  94.5734997 130.3572520 104.9813657  97.3558065
 130.1630000 103.1020000 102.3850000 128.1090000 104.2490000 101.2690000
 128.2199214 105.4821885 102.1639740 127.3448707 103.1638749 102.0137234
 132.7248790 102.5715784  99.7327728 132.1582276 102.6910000 101.1580000
 130.7410000 102.6910000 101.1580000 130.8620000 101.7190000 101.1890000
 130.3371057 102.1421082 101.8852381 129.9433487 102.9514789 103.4437628
 129.2544599 105.8473217 102.1207677 127.9623039 105.1935211 103.1880313
 127.5624407 106.2651457 101.7882770 127.7519448 102.1900218 101.7207150
 126.2895256 103.2182270 101.7390774 127.4745857 103.3245068 103.0876063
 132.3339904 103.3844292  99.1099391 133.8181579 102.6283141  99.7547570
 132.5073253 103.6207113 101.6163684 132.5037374 101.8704533 101.7955830
 130.4366078 103.6225210 101.1580000 131.7120000 100.2660000 101.3300000
 128.2310000 105.8860000 110.1270000 128.6690000 105.5640000 108.8090000
 130.1856870 105.6970422 108.7410128 130.7918325 104.7964892 109.6652661
 127.2610000 105.7690000 110.1070000 128.1891500 106.2470745 108.1019185
 128.3604998 104.5358257 108.5959032 130.5017786 106.7099699 109.0120657
 130.5538866 105.4640970 107.7384997 130.3572520 104.9813657 110.5208065
 130.1630000 103.1020000 115.5510000 128.1090000 104.2490000 114.4350000
 128.2199214 105.4821885 115.3299740 127.3448707 103.1638749 115.1797234
 132.7248790 102.5715784 112.8987728 132.1582276 102.6910000 114.3240000
 130.7410000 102.6910000 114.3240000 130.8620000 101.7190000 114.3550000
 130.3371057 102.1421082 115.0512381 129.9433487 102.9514789 116.6097628
 129.2544599 105.8473217 115.2867677 127.9623039 105.1935211 116.3540313
 127.5624407 106.2651457 114.9542770 127.7519448 102.1900218 114.8867150
 126.2895256 103.2182270 114.9050774 127.4745857 103.3245068 116.2536063
 132.3339904 103.3844292 112.2759391 133.8181579 102.6283141 112.9207570
 132.5073253 103.6207113 114.7823684 132.5037374 101.8704533 114.9615830
 130.4366078 103.6225210 114.3240000 131.7120000 100.2660000 114.4960000
 128.2310000 105.8860000 123.2930000 128.6690000 105.5640000 121.9750000
 130.1856870 105.6970422 121.9070128 130.7918325 104.7964892 122.8312661
 127.2610000 105.7690000 123.2730000 128.1891500 106.2470745 121.2679185
 128.3604998 104.5358257 121.7619032 130.5017786 106.7099699 122.1780657
 130.5538866 105.4640970 120.9044997 130.3572520 104.9813657 123.6868065
 130.1630000 103.1020000 128.7160000 128.1090000 104.2490000 127.6000000
 128.2199214 105.4821885 128.4949740 127.3448707 103.1638749 128.3447234
 132.7248790 102.5715784 126.0637728 132.1582276 102.6910000 127.4890000
 130.7410000 102.6910000 127.4890000 130.8620000 101.7190000 127.5200000
 130.3371057 102.1421082 128.2162381 129.9433487 102.9514789 129.7747628
 129.2544599 105.8473217 128.4517677 127.9623039 105.1935211 129.5190313
 127.5624407 106.2651457 128.1192770 127.7519448 102.1900218 128.0517150
 126.2895256 103.2182270 128.0700774 127.4745857 103.3245068 129.4186063
 132.3339904 103.3844292 125.4409391 133.8181579 102.6283141 126.0857570
 132.5073253 103.6207113 127.9473684 132.5037374 101.8704533 128.1265830
 130.4366078 103.6225210 127.4890000 131.7120000 100.2660000 127.6610000
 128.2310000 105.8860000 136.4580000 128.6690000 105.5640000 135.1400000
 130.1856870 105.6970422 135.0720128 130.7918325 104.7964892 135.9962661
 127.2610000 105.7690000 136.4380000 128.1891500 106.2470745 134.4329185
 128.3604998 104.5358257 134.9269032 130.5017786 106.7099699 135.3430657
 130.5538866 105.4640970 134.0694997 130.3572520 104.9813657 136.8518065
 130.1630000 103.1020000 141.8810000 128.1090000 104.2490000 140.7650000
 128.2199214 105.4821885 141.6599740 127.3448707 103.1638749 141.5097234
 132.7248790 102.5715784 139.2287728 132.1582276 102.6910000 140.6540000
 130.7410000 102.6910000 140.6540000 130.8620000 101.7190000 140.6850000
 130.3371057 102.1421082 141.3812381 129.9433487 102.9514789 142.9397628
 129.2544599 105.8473217 141.6167677 127.9623039 105.1935211 142.6840313
 127.5624407 106.2651457 141.2842770 127.7519448 102.1900218 141.2167150
 126.2895256 103.2182270 141.2350774 127.4745857 103.3245068 142.5836063
 132.3339904 103.3844292 138.6059391 133.8181579 102.6283141 139.2507570
 132.5073253 103.6207113 141.1123684 132.5037374 101.8704533 141.2915830
 130.4366078 103.6225210 140.6540000 131.7120000 100.2660000 140.8260000
 128.2310000 105.8860000 149.6230000 128.6690000 105.5640000 148.3050000
 130.1856870 105.6970422 148.2370128 130.7918325 104.7964892 149.1612661
 127.2610000 105.7690000 149.6030000 128.1891500 106.2470745 147.5979185
 128.3604998 104.5358257 148.0919032 130.5017786 106.7099699 148.5080657
 130.5538866 105.4640970 147.2344997 130.3572520 104.9813657 150.0168065
 130.1630000 103.1020000 155.0460000 128.1090000 104.2490000 153.9300000
 128.2199214 105.4821885 154.8249740 127.3448707 103.1638749 154.6747234
 132.7248790 102.5715784 152.3937728 132.1582276 102.6910000 153.8190000
 130.7410000 102.6910000 153.8190000 130.8620000 101.7190000 153.8500000
 130.3371057 102.1421082 154.5462381 129.9433487 102.9514789 156.1047628
 129.2544599 105.8473217 154.7817677 127.9623039 105.1935211 155.8490313
 127.5624407 106.2651457 154.4492770 127.7519448 102.1900218 154.3817150
 126.2895256 103.2182270 154.4000774 127.4745857 103.3245068 155.7486063
 132.3339904 103.3844292 151.7709391 133.8181579 102.6283141 152.4157570
 132.5073253 103.6207113 154.2773684 132.5037374 101.8704533 154.4565830
 130.4366078 103.6225210 153.8190000 131.7120000 100.2660000 153.9910000
 128.2310000 105.8860000 162.7880000 128.6690000 105.5640000 161.4700000
 130.1856870 105.6970422 161.4020128 130.7918325 104.7964892 162.3262661
 127.2610000 105.7690000 162.7680000 128.1891500 106.2470745 160.7629185
 128.3604998 104.5358257 161.2569032 130.5017786 106.7099699 161.6730657
 130.5538866 105.4640970 160.3994997 130.3572520 104.9813657 163.1818065
 130.1630000 103.1020000 168.2110000 128.1090000 104.2490000 167.0950000
 128.2199214 105.4821885 167.9899740 127.3448707 103.1638749 167.8397234
 132.7248790 102.5715784 165.5587728 132.1582276 102.6910000 166.9840000
 130.7410000 102.6910000 166.9840000 130.8620000 101.7190000 167.0150000
 130.3371057 102.1421082 167.7112381 129.9433487 102.9514789 169.2697628
 129.2544599 105.8473217 167.9467677 127.9623039 105.1935211 169.0140313
 127.5624407 106.2651457 167.6142770 127.7519448 102.1900218 167.5467150
 126.2895256 103.2182270 167.5650774 127.4745857 103.3245068 168.9136063
 132.3339904 103.3844292 164.9359391 133.8181579 102.6283141 165.5807570
 132.5073253 103.6207113 167.4423684 132.5037374 101.8704533 167.6215830
 130.4366078 103.6225210 166.9840000 131.7120000 100.2660000 167.1560000
 128.2310000 105.8860000 175.9530000 128.6690000 105.5640000 174.6350000
 130.1856870 105.6970422 174.5670128 130.7918325 104.7964892 175.4912661
 127.2610000 105.7690000 175.9330000 128.1891500 106.2470745 173.9279185
 128.3604998 104.5358257 174.4219032 130.5017786 106.7099699 174.8380657
 130.5538866 105.4640970 173.5644997 130.3572520 104.9813657 176.3468065
 130.1630000 103.1020000 181.3770000 128.1090000 104.2490000 180.2610000
 128.2199214 105.4821885 181.1559740 127.3448707 103.1638749 181.0057234
 132.7248790 102.5715784 178.7247728 132.1582276 102.6910000 180.1500000
 130.7410000 102.6910000 180.1500000 130.8620000 101.7190000 180.1810000
 130.3371057 102.1421082 180.8772381 129.9433487 102.9514789 182.4357628
 129.2544599 105.8473217 181.1127677 127.9623039 105.1935211 182.1800313
 127.5624407 106.2651457 180.7802770 127.7519448 102.1900218 180.7127150
 126.2895256 103.2182270 180.7310774 127.4745857 103.3245068 182.0796063
 132.3339904 103.3844292 178.1019391 133.8181579 102.6283141 178.7467570
 132.5073253 103.6207113 180.6083684 132.5037374 101.8704533 180.7875830
 130.4366078 103.6225210 180.1500000 131.7120000 100.2660000 180.3220000
 128.2310000 105.8860000 189.1190000 128.6690000 105.5640000 187.8010000
 130.1856870 105.6970422 187.7330128 130.7918325 104.7964892 188.6572661
 127.2610000 105.7690000 189.0990000 128.1891500 106.2470745 187.0939185
 128.3604998 104.5358257 187.5879032 130.5017786 106.7099699 188.0040657
 130.5538866 105.4640970 186.7304997 130.3572520 104.9813657 189.5128065
 130.1630000 103.1020000 194.5420000 128.1090000 104.2490000 193.4260000
 128.2199214 105.4821885 194.3209740 127.3448707 103.1638749 194.1707234
 132.7248790 102.5715784 191.8897728 132.1582276 102.6910000 193.3150000
 130.7410000 102.6910000 193.3150000 130.8620000 101.7190000 193.3460000
 130.3371057 102.1421082 194.0422381 129.9433487 102.9514789 195.6007628
 129.2544599 105.8473217 194.2777677 127.9623039 105.1935211 195.3450313
 127.5624407 106.2651457 193.9452770 127.7519448 102.1900218 193.8777150
 126.2895256 103.2182270 193.8960774 127.4745857 103.3245068 195.2446063
 132.3339904 103.3844292 191.2669391 133.8181579 102.6283141 191.9117570
 132.5073253 103.6207113 193.7733684 132.5037374 101.8704533 193.9525830
 130.4366078 103.6225210 193.3150000 131.7120000 100.2660000 193.4870000
 128.2310000 105.8860000 202.2840000 128.6690000 105.5640000 200.9660000
 130.1856870 105.6970422 200.8980128 130.7918325 104.7964892 201.8222661
 127.2610000 105.7690000 202.2640000 128.1891500 106.2470745 200.2589185
 128.3604998 104.5358257 200.7529032 130.5017786 106.7099699 201.1690657
 130.5538866 105.4640970 199.8954997 130.3572520 104.9813657 202.6778065
 130.1630000 110.4180000  76.0550000 128.1090000 111.5650000  74.9390000
 128.2199214 112.7981885  75.8339740 127.3448707 110.4798749  75.6837234
 132.7248790 109.8875784  73.4027728 132.1582276 110.0070000  74.8280000
 130.7410000 110.0070000  74.8280000 130.8620000 109.0350000  74.8590000
 130.3371057 109.4581082  75.5552381 129.9433487 110.2674789  77.1137628
 129.2544599 113.1633217  75.7907677 127.9623039 112.5095211  76.8580313
 127.5624407 113.5811457  75.4582770 127.7519448 109.5060218  75.3907150
 126.2895256 110.5342270  75.4090774 127.4745857 110.6405068  76.7576063
 132.3339904 110.7004292  72.7799391 133.8181579 109.9443141  73.4247570
 132.5073253 110.9367113  75.2863684 132.5037374 109.1864533  75.4655830
 130.4366078 110.9385210  74.8280000 131.7120000 107.5820000  75.0000000
 128.2310000 113.2020000  83.7970000 128.6690000 112.8800000  82.4790000
 130.1856870 113.0130422  82.4110128 130.7918325 112.1124892  83.3352661
 127.2610000 113.0850000  83.7770000 128.1891500 113.5630745  81.7719185
 128.3604998 111.8518257  82.2659032 130.5017786 114.0259699  82.6820657
 130.5538866 112.7800970  81.4084997 130.3572520 112.2973657  84.1908065
 130.1630000 110.4180000  89.2200000 128.1090000 111.5650000  88.1040000
 128.2199214 112.7981885  88.9989740 127.3448707 110.4798749  88.8487234
 132.7248790 109.8875784  86.5677728 132.1582276 110.0070000  87.9930000
 130.7410000 110.0070000  87.9930000 130.8620000 109.0350000  88.0240000
 130.3371057 109.4581082  88.7202381 129.9433487 110.2674789  90.2787628
 129.2544599 113.1633217  88.9557677 127.9623039 112.5095211  90.0230313
 127.5624407 113.5811457  88.6232770 127.7519448 109.5060218  88.5557150
 126.2895256 110.5342270  88.5740774 127.4745857 110.6405068  89.9226063
 132.3339904 110.7004292  85.9449391 133.8181579 109.9443141  86.5897570
 132.5073253 110.9367113  88.4513684 132.5037374 109.1864533  88.6305830
 130.4366078 110.9385210  87.9930000 131.7120000 107.5820000  88.1650000
 128.2310000 113.2020000  96.9620000 128.6690000 112.8800000  95.6440000
 130.1856870 113.0130422  95.5760128 130.7918325 112.1124892  96.5002661
 127.2610000 113.0850000  96.9420000 128.1891500 113.5630745  94.9369185
 128.3604998 111.8518257  95.4309032 130.5017786 114.0259699  95.8470657
 130.5538866 112.7800970  94.5734997 130.3572520 112.2973657  97.3558065
 130.1630000 110.4180000 102.3850000 128.1090000 111.5650000 101.2690000
 128.2199214 112.7981885 102.1639740 127.3448707 110.4798749 102.0137234
 132.7248790 109.8875784  99.7327728 132.1582276 110.0070000 101.1580000
 130.7410000 110.0070000 101.1580000 130.8620000 109.0350000 101.1890000
 130.3371057 109.4581082 101.8852381 129.9433487 110.2674789 103.4437628
 129.2544599 113.1633217 102.1207677 127.9623039 112.5095211 103.1880313
 127.5624407 113.5811457 101.7882770 127.7519448 109.5060218 101.7207150
 126.2895256 110.5342270 101.7390774 127.4745857 110.6405068 103.0876063
 132.3339904 110.7004292  99.1099391 133.8181579 109.9443141  99.7547570
 132.5073253 110.9367113 101.6163684 132.5037374 109.1864533 101.7955830
 130.4366078 110.9385210 101.1580000 131.7120000 107.5820000 101.3300000
 128.2310000 113.2020000 110.1270000 128.6690000 112.8800000 108.8090000
 130.1856870 113.0130422 108.7410128 130.7918325 112.1124892 109.6652661
 127.2610000 113.0850000 110.1070000 128.1891500 113.5630745 108.1019185
 128.3604998 111.8518257 108.5959032 130.5017786 114.0259699 109.0120657
 130.5538866 112.7800970 107.7384997 130.3572520 112.2973657 110.5208065
 130.1630000 110.4180000 115.5510000 128.1090000 111.5650000 114.4350000
 128.2199214 112.7981885 115.3299740 127.3448707 110.4798749 115.1797234
 132.7248790 109.8875784 112.8987728 132.1582276 110.0070000 114.3240000
 130.7410000 110.0070000 114.3240000 130.8620000 109.0350000 114.3550000
 130.3371057 109.4581082 115.0512381 129.9433487 110.2674789 116.6097628
 129.2544599 113.1633217 115.2867677 127.9623039 112.5095211 116.3540313
 127.5624407 113.5811457 114.9542770 127.7519448 109.5060218 114.8867150
 126.2895256 110.5342270 114.9050774 127.4745857 110.6405068 116.2536063
 132.3339904 110.7004292 112.2759391 133.8181579 109.9443141 112.9207570
 132.5073253 110.9367113 114.7823684 132.5037374 109.1864533 114.9615830
 130.4366078 110.9385210 114.3240000 131.7120000 107.5820000 114.4960000
 128.2310000 113.2020000 123.2930000 128.6690000 112.8800000 121.9750000
 130.1856870 113.0130422 121.9070128 130.7918325 112.1124892 122.8312661
 127.2610000 113.0850000 123.2730000 128.1891500 113.5630745 121.2679185
 128.3604998 111.8518257 121.7619032 130.5017786 114.0259699 122.1780657
 130.5538866 112.7800970 120.9044997 130.3572520 112.2973657 123.6868065
 130.1630000 110.4180000 128.7160000 128.1090000 111.5650000 127.6000000
 128.2199214 112.7981885 128.4949740 127.3448707 110.4798749 128.3447234
 132.7248790 109.8875784 126.0637728 132.1582276 110.0070000 127.4890000
 130.7410000 110.0070000 127.4890000 130.8620000 109.0350000 127.5200000
 130.3371057 109.4581082 128.2162381 129.9433487 110.2674789 129.7747628
 129.2544599 113.1633217 128.4517677 127.9623039 112.5095211 129.5190313
 127.5624407 113.5811457 128.1192770 127.7519448 109.5060218 128.0517150
 126.2895256 110.5342270 128.0700774 127.4745857 110.6405068 129.4186063
 132.3339904 110.7004292 125.4409391 133.8181579 109.9443141 126.0857570
 132.5073253 110.9367113 127.9473684 132.5037374 109.1864533 128.1265830
 130.4366078 110.9385210 127.4890000 131.7120000 107.5820000 127.6610000
 128.2310000 113.2020000 136.4580000 128.6690000 112.8800000 135.1400000
 130.1856870 113.0130422 135.0720128 130.7918325 112.1124892 135.9962661
 127.2610000 113.0850000 136.4380000 128.1891500 113.5630745 134.4329185
 128.3604998 111.8518257 134.9269032 130.5017786 114.0259699 135.3430657
 130.5538866 112.7800970 134.0694997 130.3572520 112.2973657 136.8518065
 130.1630000 110.4180000 141.8810000 128.1090000 111.5650000 140.7650000
 128.2199214 112.7981885 141.6599740 127.3448707 110.4798749 141.5097234
 132.7248790 109.8875784 139.2287728 132.1582276 110.0070000 140.6540000
 130.7410000 110.0070000 140.6540000 130.8620000 109.0350000 140.6850000
 130.3371057 109.4581082 141.3812381 129.9433487 110.2674789 142.9397628
 129.2544599 113.1633217 141.6167677 127.9623039 112.5095211 142.6840313
 127.5624407 113.5811457 141.2842770 127.7519448 109.5060218 141.2167150
 126.2895256 110.5342270 141.2350774 127.4745857 110.6405068 142.5836063
 132.3339904 110.7004292 138.6059391 133.8181579 109.9443141 139.2507570
 132.5073253 110.9367113 141.1123684 132.5037374 109.1864533 141.2915830
 130.4366078 110.9385210 140.6540000 131.7120000 107.5820000 140.8260000
 128.2310000 113.2020000 149.6230000 128.6690000 112.8800000 148.3050000
 130.1856870 113.0130422 148.2370128 130.7918325 112.1124892 149.1612661
 127.2610000 113.0850000 149.6030000 128.1891500 113.5630745 147.5979185
 128.3604998 111.8518257 148.0919032 130.5017786 114.0259699 148.5080657
 130.5538866 112.7800970 147.2344997 130.3572520 112.2973657 150.0168065
 130.1630000 110.4180000 155.0460000 128.1090000 111.5650000 153.9300000
 128.2199214 112.7981885 154.8249740 127.3448707 110.4798749 154.6747234
 132.7248790 109.8875784 152.3937728 132.1582276 110.0070000 153.8190000
 130.7410000 110.0070000 153.8190000 130.8620000 109.0350000 153.8500000
 130.3371057 109.4581082 154.5462381 129.9433487 110.2674789 156.1047628
 129.2544599 113.1633217 154.7817677 127.9623039 112.5095211 155.8490313
 127.5624407 113.5811457 154.4492770 127.7519448 109.5060218 154.3817150
 126.2895256 110.5342270 154.4000774 127.4745857 110.6405068 155.7486063
 132.3339904 110.7004292 151.7709391 133.8181579 109.9443141 152.4157570
 132.5073253 110.9367113 154.2773684 132.5037374 109.1864533 154.4565830
 130.4366078 110.9385210 153.8190000 131.7120000 107.5820000 153.9910000
 128.2310000 113.2020000 162.7880000 128.6690000 112.8800000 161.4700000
 130.1856870 113.0130422 161.4020128 130.7918325 112.1124892 162.3262661
 127.2610000 113.0850000 162.7680000 128.1891500 113.5630745 160.7629185
 128.3604998 111.8518257 161.2569032 130.5017786 114.0259699 161.6730657
 130.5538866 112.7800970 160.3994997 130.3572520 112.2973657 163.1818065
 130.1630000 110.4180000 168.2110000 128.1090000 111.5650000 167.0950000
 128.2199214 112.7981885 167.9899740 127.3448707 110.4798749 167.8397234
 132.7248790 109.8875784 165.5587728 132.1582276 110.0070000 166.9840000
 130.7410000 110.0070000 166.9840000 130.8620000 109.0350000 167.0150000
 130.3371057 109.4581082 167.7112381 129.9433487 110.2674789 169.2697628
 129.2544599 113.1633217 167.9467677 127.9623039 112.5095211 169.0140313
 127.5624407 113.5811457 167.6142770 127.7519448 109.5060218 167.5467150
 126.2895256 110.5342270 167.5650774 127.4745857 110.6405068 168.9136063
 132.3339904 110.7004292 164.9359391 133.8181579 109.9443141 165.5807570
 132.5073253 110.9367113 167.4423684 132.5037374 109.1864533 167.6215830
 130.4366078 110.9385210 166.9840000 131.7120000 107.5820000 167.1560000
 128.2310000 113.2020000 175.9530000 128.6690000 112.8800000 174.6350000
 130.1856870 113.0130422 174.5670128 130.7918325 112.1124892 175.4912661
 127.2610000 113.0850000 175.9330000 128.1891500 113.5630745 173.9279185
 128.3604998 111.8518257 174.4219032 130.5017786 114.0259699 174.8380657
 130.5538866 112.7800970 173.5644997 130.3572520 112.2973657 176.3468065
 130.1630000 110.4180000 181.3770000 128.1090000 111.5650000 180.2610000
 128.2199214 112.7981885 181.1559740 127.3448707 110.4798749 181.0057234
 132.7248790 109.8875784 178.7247728 132.1582276 110.0070000 180.1500000
 130.7410000 110.0070000 180.1500000 130.8620000 109.0350000 180.1810000
 130.3371057 109.4581082 180.8772381 129.9433487 110.2674789 182.4357628
 129.2544599 113.1633217 181.1127677 127.9623039 112.5095211 182.1800313
 127.5624407 113.5811457 180.7802770 127.7519448 109.5060218 180.7127150
 126.2895256 110.5342270 180.7310774 127.4745857 110.6405068 182.0796063
 132.3339904 110.7004292 178.1019391 133.8181579 109.9443141 178.7467570
 132.5073253 110.9367113 180.6083684 132.5037374 109.1864533 180.7875830
 130.4366078 110.9385210 180.1500000 131.7120000 107.5820000 180.3220000
 128.2310000 113.2020000 189.1190000 128.6690000 112.8800000 187.8010000
 130.1856870 113.0130422 187.7330128 130.7918325 112.1124892 188.6572661
 127.2610000 113.0850000 189.0990000 128.1891500 113.5630745 187.0939185
 128.3604998 111.8518257 187.5879032 130.5017786 114.0259699 188.0040657
 130.5538866 112.7800970 186.7304997 130.3572520 112.2973657 189.5128065
 130.1630000 110.4180000 194.5420000 128.1090000 111.5650000 193.4260000
 128.2199214 112.7981885 194.3209740 127.3448707 110.4798749 194.1707234
 132.7248790 109.8875784 191.8897728 132.1582276 110.0070000 193.3150000
 130.7410000 110.0070000 193.3150000 130.8620000 109.0350000 193.3460000
 130.3371057 109.4581082 194.0422381 129.9433487 110.2674789 195.6007628
 129.2544599 113.1633217 194.2777677 127.9623039 112.5095211 195.3450313
 127.5624407 113.5811457 193.9452770 127.7519448 109.5060218 193.8777150
 126.2895256 110.5342270 193.8960774 127.4745857 110.6405068 195.2446063
 132.3339904 110.7004292 191.2669391 133.8181579 109.9443141 191.9117570
 132.5073253 110.9367113 193.7733684 132.5037374 109.1864533 193.9525830
 130.4366078 110.9385210 193.3150000 131.7120000 107.5820000 193.4870000
 128.2310000 113.2020000 202.2840000 128.6690000 112.8800000 200.9660000
 130.1856870 113.0130422 200.8980128 130.7918325 112.1124892 201.8222661
 127.2610000 113.0850000 202.2640000 128.1891500 113.5630745 200.2589185
 128.3604998 111.8518257 200.7529032 130.5017786 114.0259699 201.1690657
 130.5538866 112.7800970 199.8954997 130.3572520 112.2973657 202.6778065
 130.1630000 117.7340000  76.0550000 128.1090000 118.8810000  74.9390000
 128.2199214 120.1141885  75.8339740 127.3448707 117.7958749  75.6837234
 132.7248790 117.2035784  73.4027728 132.1582276 117.3230000  74.8280000
 130.7410000 117.3230000  74.8280000 130.8620000 116.3510000  74.8590000
 130.3371057 116.7741082  75.5552381 129.9433487 117.5834789  77.1137628
 129.2544599 120.4793217  75.7907677 127.9623039 119.8255211  76.8580313
 127.5624407 120.8971457  75.4582770 127.7519448 116.8220218  75.3907150
 126.2895256 117.8502270  75.4090774 127.4745857 117.9565068  76.7576063
 132.3339904 118.0164292  72.7799391 133.8181579 117.2603141  73.4247570
 132.5073253 118.2527113  75.2863684 132.5037374 116.5024533  75.4655830
 130.4366078 118.2545210  74.8280000 131.7120000 114.8980000  75.0000000
 128.2310000 120.5180000  83.7970000 128.6690000 120.1960000  82.4790000
 130.1856870 120.3290422  82.4110128 130.7918325 119.4284892  83.3352661
 127.2610000 120.4010000  83.7770000 128.1891500 120.8790745  81.7719185
 128.3604998 119.1678257  82.2659032 130.5017786 121.3419699  82.6820657
 130.5538866 120.0960970  81.4084997 130.3572520 119.6133657  84.1908065
 130.1630000 117.7340000  89.2200000 128.1090000 118.8810000  88.1040000
 128.2199214 120.1141885  88.9989740 127.3448707 117.7958749  88.8487234
 132.7248790 117.2035784  86.5677728 132.1582276 117.3230000  87.9930000
 130.7410000 117.3230000  87.9930000 130.8620000 116.3510000  88.0240000
 130.3371057 116.7741082  88.7202381 129.9433487 117.5834789  90.2787628
 129.2544599 120.4793217  88.9557677 127.9623039 119.8255211  90.0230313
 127.5624407 120.8971457  88.6232770 127.7519448 116.8220218  88.5557150
 126.2895256 117.8502270  88.5740774 127.4745857 117.9565068  89.9226063
 132.3339904 118.0164292  85.9449391 133.8181579 117.2603141  86.5897570
 132.5073253 118.2527113  88.4513684 132.5037374 116.5024533  88.6305830
 130.4366078 118.2545210  87.9930000 131.7120000 114.8980000  88.1650000
 128.2310000 120.5180000  96.9620000 128.6690000 120.1960000  95.6440000
 130.1856870 120.3290422  95.5760128 130.7918325 119.4284892  96.5002661
 127.2610000 120.4010000  96.9420000 128.1891500 120.8790745  94.9369185
 128.3604998 119.1678257  95.4309032 130.5017786 121.3419699  95.8470657
 130.5538866 120.0960970  94.5734997 130.3572520 119.6133657  97.3558065
 130.1630000 117.7340000 102.3850000 128.1090000 118.8810000 101.2690000
 128.2199214 120.1141885 102.1639740 127.3448707 117.7958749 102.0137234
 132.7248790 117.2035784  99.7327728 132.1582276 117.3230000 101.1580000
 130.7410000 117.3230000 101.1580000 130.8620000 116.3510000 101.1890000
 130.3371057 116.7741082 101.8852381 129.9433487 117.5834789 103.4437628
 129.2544599 120.4793217 102.1207677 127.9623039 119.8255211 103.1880313
 127.5624407 120.8971457 101.7882770 127.7519448 116.8220218 101.7207150
 126.2895256 117.8502270 101.7390774 127.4745857 117.9565068 103.0876063
 132.3339904 118.0164292  99.1099391 133.8181579 117.2603141  99.7547570
 132.5073253 118.2527113 101.6163684 132.5037374 116.5024533 101.7955830
 130.4366078 118.2545210 101.1580000 131.7120000 114.8980000 101.3300000
 128.2310000 120.5180000 110.1270000 128.6690000 120.1960000 108.8090000
 130.1856870 120.3290422 108.7410128 130.7918325 119.4284892 109.6652661
 127.2610000 120.4010000 110.1070000 128.1891500 120.8790745 108.1019185
 128.3604998 119.1678257 108.5959032 130.5017786 121.3419699 109.0120657
 130.5538866 120.0960970 107.7384997 130.3572520 119.6133657 110.5208065
 130.1630000 117.7340000 115.5510000 128.1090000 118.8810000 114.4350000
 128.2199214 120.1141885 115.3299740 127.3448707 117.7958749 115.1797234
 132.7248790 117.2035784 112.8987728 132.1582276 117.3230000 114.3240000
 130.7410000 117.3230000 114.3240000 130.8620000 116.3510000 114.3550000
 130.3371057 116.7741082 115.0512381 129.9433487 117.5834789 116.6097628
 129.2544599 120.4793217 115.2867677 127.9623039 119.8255211 116.3540313
 127.5624407 120.8971457 114.9542770 127.7519448 116.8220218 114.8867150
 126.2895256 117.8502270 114.9050774 127.4745857 117.9565068 116.2536063
 132.3339904 118.0164292 112.2759391 133.8181579 117.2603141 112.9207570
 132.5073253 118.2527113 114.7823684 132.5037374 116.5024533 114.9615830
 130.4366078 118.2545210 114.3240000 131.7120000 114.8980000 114.4960000
 128.2310000 120.5180000 123.2930000 128.6690000 120.1960000 121.9750000
 130.1856870 120.3290422 121.9070128 130.7918325 119.4284892 122.8312661
 127.2610000 120.4010000 123.2730000 128.1891500 120.8790745 121.2679185
 128.3604998 119.1678257 121.7619032 130.5017786 121.3419699 122.1780657
 130.5538866 120.0960970 120.9044997 130.3572520 119.6133657 123.6868065
 130.1630000 117.7340000 128.7160000 128.1090000 118.8810000 127.6000000
 128.2199214 120.1141885 128.4949740 127.3448707 117.7958749 128.3447234
 132.7248790 117.2035784 126.0637728 132.1582276 117.3230000 127.4890000
 130.7410000 117.3230000 127.4890000 130.8620000 116.3510000 127.5200000
 130.3371057 116.7741082 128.2162381 129.9433487 117.5834789 129.7747628
 129.2544599 120.4793217 128.4517677 127.9623039 119.8255211 129.5190313
 127.5624407 120.8971457 128.1192770 127.7519448 116.8220218 128.0517150
 126.2895256 117.8502270 128.0700774 127.4745857 117.9565068 129.4186063
 132.3339904 118.0164292 125.4409391 133.8181579 117.2603141 126.0857570
 132.5073253 118.2527113 127.9473684 132.5037374 116.5024533 128.1265830
 130.4366078 118.2545210 127.4890000 131.7120000 114.8980000 127.6610000
 128.2310000 120.5180000 136.4580000 128.6690000 120.1960000 135.1400000
 130.1856870 120.3290422 135.0720128 130.7918325 119.4284892 135.9962661
 127.2610000 120.4010000 136.4380000 128.1891500 120.8790745 134.4329185
 128.3604998 119.1678257 134.9269032 130.5017786 121.3419699 135.3430657
 130.5538866 120.0960970 134.0694997 130.3572520 119.6133657 136.8518065
 130.1630000 117.7340000 141.8810000 128.1090000 118.8810000 140.7650000
 128.2199214 120.1141885 141.6599740 127.3448707 117.7958749 141.5097234
 132.7248790 117.2035784 139.2287728 132.1582276 117.3230000 140.6540000
 130.7410000 117.3230000 140.6540000 130.8620000 116.3510000 140.6850000
 130.3371057 116.7741082 141.3812381 129.9433487 117.5834789 142.9397628
 129.2544599 120.4793217 141.6167677 127.9623039 119.8255211 142.6840313
 127.5624407 120.8971457 141.2842770 127.7519448 116.8220218 141.2167150
 126.2895256 117.8502270 141.2350774 127.4745857 117.9565068 142.5836063
 132.3339904 118.0164292 138.6059391 133.8181579 117.2603141 139.2507570
 132.5073253 118.2527113 141.1123684 132.5037374 116.5024533 141.2915830
 130.4366078 118.2545210 140.6540000 131.7120000 114.8980000 140.8260000
 128.2310000 120.5180000 149.6230000 128.6690000 120.1960000 148.3050000
 130.1856870 120.3290422 148.2370128 130.7918325 119.4284892 149.1612661
 127.2610000 120.4010000 149.6030000 128.1891500 120.8790745 147.5979185
 128.3604998 119.1678257 148.0919032 130.5017786 121.3419699 148.5080657
 130.5538866 120.0960970 147.2344997 130.3572520 119.6133657 150.0168065
 130.1630000 117.7340000 155.0460000 128.1090000 118.8810000 153.9300000
 128.2199214 120.1141885 154.8249740 127.3448707 117.7958749 154.6747234
 132.7248790 117.2035784 152.3937728 132.1582276 117.3230000 153.8190000
 130.7410000 117.3230000 153.8190000 130.8620000 116.3510000 153.8500000
 130.3371057 116.7741082 154.5462381 129.9433487 117.5834789 156.1047628
 129.2544599 120.4793217 154.7817677 127.9623039 119.8255211 155.8490313
 127.5624407 120.8971457 154.4492770 127.7519448 116.8220218 154.3817150
 126.2895256 117.8502270 154.4000774 127.4745857 117.9565068 155.7486063
 132.3339904 118.0164292 151.7709391 133.8181579 117.2603141 152.4157570
 132.5073253 118.2527113 154.2773684 132.5037374 116.5024533 154.4565830
 130.4366078 118.2545210 153.8190000 131.7120000 114.8980000 153.9910000
 128.2310000 120.5180000 162.7880000 128.6690000 120.1960000 161.4700000
 130.1856870 120.3290422 161.4020128 130.7918325 119.4284892 162.3262661
 127.2610000 120.4010000 162.7680000 128.1891500 120.8790745 160.7629185
 128.3604998 119.1678257 161.2569032 130.5017786 121.3419699 161.6730657
 130.5538866 120.0960970 160.3994997 130.3572520 119.6133657 163.1818065
 130.1630000 117.7340000 168.2110000 128.1090000 118.8810000 167.0950000
 128.2199214 120.1141885 167.9899740 127.3448707 117.7958749 167.8397234
 132.7248790 117.2035784 165.5587728 132.1582276 117.3230000 166.9840000
 130.7410000 117.3230000 166.9840000 130.8620000 116.3510000 167.0150000
 130.3371057 116.7741082 167.7112381 129.9433487 117.5834789 169.2697628
 129.2544599 120.4793217 167.9467677 127.9623039 119.8255211 169.0140313
 127.5624407 120.8971457 167.6142770 127.7519448 116.8220218 167.5467150
 126.2895256 117.8502270 167.5650774 127.4745857 117.9565068 168.9136063
 132.3339904 118.0164292 164.9359391 133.8181579 117.2603141 165.5807570
 132.5073253 118.2527113 167.4423684 132.5037374 116.5024533 167.6215830
 130.4366078 118.2545210 166.9840000 131.7120000 114.8980000 167.1560000
 128.2310000 120.5180000 175.9530000 128.6690000 120.1960000 174.6350000
 130.1856870 120.3290422 174.5670128 130.7918325 119.4284892 175.4912661
 127.2610000 120.4010000 175.9330000 128.1891500 120.8790745 173.9279185
 128.3604998 119.1678257 174.4219032 130.5017786 121.3419699 174.8380657
 130.5538866 120.0960970 173.5644997 130.3572520 119.6133657 176.3468065
 130.1630000 117.7340000 181.3770000 128.1090000 118.8810000 180.2610000
 128.2199214 120.1141885 181.1559740 127.3448707 117.7958749 181.0057234
 132.7248790 117.2035784 178.7247728 132.1582276 117.3230000 180.1500000
 130.7410000 117.3230000 180.1500000 130.8620000 116.3510000 180.1810000
 130.3371057 116.7741082 180.8772381 129.9433487 117.5834789 182.4357628
 129.2544599 120.4793217 181.1127677 127.9623039 119.8255211 182.1800313
 127.5624407 120.8971457 180.7802770 127.7519448 116.8220218 180.7127150
 126.2895256 117.8502270 180.7310774 127.4745857 117.9565068 182.0796063
 132.3339904 118.0164292 178.1019391 133.8181579 117.2603141 178.7467570
 132.5073253 118.2527113 180.6083684 132.5037374 116.5024533 180.7875830
 130.4366078 118.2545210 180.1500000 131.7120000 114.8980000 180.3220000
 128.2310000 120.5180000 189.1190000 128.6690000 120.1960000 187.8010000
 130.1856870 120.3290422 187.7330128 130.7918325 119.4284892 188.6572661
 127.2610000 120.4010000 189.0990000 128.1891500 120.8790745 187.0939185
 128.3604998 119.1678257 187.5879032 130.5017786 121.3419699 188.0040657
 130.5538866 120.0960970 186.7304997 130.3572520 119.6133657 189.5128065
 130.1630000 117.7340000 194.5420000 128.1090000 118.8810000 193.4260000
 128.2199214 120.1141885 194.3209740 127.3448707 117.7958749 194.1707234
 132.7248790 117.2035784 191.8897728 132.1582276 117.3230000 193.3150000
 130.7410000 117.3230000 193.3150000 130.8620000 116.3510000 193.3460000
 130.3371057 116.7741082 194.0422381 129.9433487 117.5834789 195.6007628
 129.2544599 120.4793217 194.2777677 127.9623039 119.8255211 195.3450313
 127.5624407 120.8971457 193.9452770 127.7519448 116.8220218 193.8777150
 126.2895256 117.8502270 193.8960774 127.4745857 117.9565068 195.2446063
 132.3339904 118.0164292 191.2669391 133.8181579 117.2603141 191.9117570
 132.5073253 118.2527113 193.7733684 132.5037374 116.5024533 193.9525830
 130.4366078 118.2545210 193.3150000 131.7120000 114.8980000 193.4870000
 128.2310000 120.5180000 202.2840000 128.6690000 120.1960000 200.9660000
 130.1856870 120.3290422 200.8980128 130.7918325 119.4284892 201.8222661
 127.2610000 120.4010000 202.2640000 128.1891500 120.8790745 200.2589185
 128.3604998 119.1678257 200.7529032 130.5017786 121.3419699 201.1690657
 130.5538866 120.0960970 199.8954997 130.3572520 119.6133657 202.6778065
 130.1630000 125.0510000  76.0550000 128.1090000 126.1980000  74.9390000
 128.2199214 127.4311885  75.8339740 127.3448707 125.1128749  75.6837234
 132.7248790 124.5205784  73.4027728 132.1582276 124.6400000  74.8280000
 130.7410000 124.6400000  74.8280000 130.8620000 123.6680000  74.8590000
 130.3371057 124.0911082  75.5552381 129.9433487 124.9004789  77.1137628
 129.2544599 127.7963217  75.7907677 127.9623039 127.1425211  76.8580313
 127.5624407 128.2141457  75.4582770 127.7519448 124.1390218  75.3907150
 126.2895256 125.1672270  75.4090774 127.4745857 125.2735068  76.7576063
 132.3339904 125.3334292  72.7799391 133.8181579 124.5773141  73.4247570
 132.5073253 125.5697113  75.2863684 132.5037374 123.8194533  75.4655830
 130.4366078 125.5715210  74.8280000 131.7120000 122.2150000  75.0000000
 128.2310000 127.8350000  83.7970000 128.6690000 127.5130000  82.4790000
 130.1856870 127.6460422  82.4110128 130.7918325 126.7454892  83.3352661
 127.2610000 127.7180000  83.7770000 128.1891500 128.1960745  81.7719185
 128.3604998 126.4848257  82.2659032 130.5017786 128.6589699  82.6820657
 130.5538866 127.4130970  81.4084997 130.3572520 126.9303657  84.1908065
 130.1630000 125.0510000  89.2200000 128.1090000 126.1980000  88.1040000
 128.2199214 127.4311885  88.9989740 127.3448707 125.1128749  88.8487234
 132.7248790 124.5205784  86.5677728 132.1582276 124.6400000  87.9930000
 130.7410000 124.6400000  87.9930000 130.8620000 123.6680000  88.0240000
 130.3371057 124.0911082  88.7202381 129.9433487 124.9004789  90.2787628
 129.2544599 127.7963217  88.9557677 127.9623039 127.1425211  90.0230313
 127.5624407 128.2141457  88.6232770 127.7519448 124.1390218  88.5557150
 126.2895256 125.1672270  88.5740774 127.4745857 125.2735068  89.9226063
 132.3339904 125.3334292  85.9449391 133.8181579 124.5773141  86.5897570
 132.5073253 125.5697113  88.4513684 132.5037374 123.8194533  88.6305830
 130.4366078 125.5715210  87.9930000 131.7120000 122.2150000  88.1650000
 128.2310000 127.8350000  96.9620000 128.6690000 127.5130000  95.6440000
 130.1856870 127.6460422  95.5760128 130.7918325 126.7454892  96.5002661
 127.2610000 127.7180000  96.9420000 128.1891500 128.1960745  94.9369185
 128.3604998 126.4848257  95.4309032 130.5017786 128.6589699  95.8470657
 130.5538866 127.4130970  94.5734997 130.3572520 126.9303657  97.3558065
 130.1630000 125.0510000 102.3850000 128.1090000 126.1980000 101.2690000
 128.2199214 127.4311885 102.1639740 127.3448707 125.1128749 102.0137234
 132.7248790 124.5205784  99.7327728 132.1582276 124.6400000 101.1580000
 130.7410000 124.6400000 101.1580000 130.8620000 123.6680000 101.1890000
 130.3371057 124.0911082 101.8852381 129.9433487 124.9004789 103.4437628
 129.2544599 127.7963217 102.1207677 127.9623039 127.1425211 103.1880313
 127.5624407 128.2141457 101.7882770 127.7519448 124.1390218 101.7207150
 126.2895256 125.1672270 101.7390774 127.4745857 125.2735068 103.0876063
 132.3339904 125.3334292  99.1099391 133.8181579 124.5773141  99.7547570
 132.5073253 125.5697113 101.6163684 132.5037374 123.8194533 101.7955830
 130.4366078 125.5715210 101.1580000 131.7120000 122.2150000 101.3300000
 128.2310000 127.8350000 110.1270000 128.6690000 127.5130000 108.8090000
 130.1856870 127.6460422 108.7410128 130.7918325 126.7454892 109.6652661
 127.2610000 127.7180000 110.1070000 128.1891500 128.1960745 108.1019185
 128.3604998 126.4848257 108.5959032 130.5017786 128.6589699 109.0120657
 130.5538866 127.4130970 107.7384997 130.3572520 126.9303657 110.5208065
 130.1630000 125.0510000 115.5510000 128.1090000 126.1980000 114.4350000
 128.2199214 127.4311885 115.3299740 127.3448707 125.1128749 115.1797234
 132.7248790 124.5205784 112.8987728 132.1582276 124.6400000 114.3240000
 130.7410000 124.6400000 114.3240000 130.8620000 123.6680000 114.3550000
 130.3371057 124.0911082 115.0512381 129.9433487 124.9004789 116.6097628
 129.2544599 127.7963217 115.2867677 127.9623039 127.1425211 116.3540313
 127.5624407 128.2141457 114.9542770 127.7519448 124.1390218 114.8867150
 126.2895256 125.1672270 114.9050774 127.4745857 125.2735068 116.2536063
 132.3339904 125.3334292 112.2759391 133.8181579 124.5773141 112.9207570
 132.5073253 125.5697113 114.7823684 132.5037374 123.8194533 114.9615830
 130.4366078 125.5715210 114.3240000 131.7120000 122.2150000 114.4960000
 128.2310000 127.8350000 123.2930000 128.6690000 127.5130000 121.9750000
 130.1856870 127.6460422 121.9070128 130.7918325 126.7454892 122.8312661
 127.2610000 127.7180000 123.2730000 128.1891500 128.1960745 121.2679185
 128.3604998 126.4848257 121.7619032 130.5017786 128.6589699 122.1780657
 130.5538866 127.4130970 120.9044997 130.3572520 126.9303657 123.6868065
 130.1630000 125.0510000 128.7160000 128.1090000 126.1980000 127.6000000
 128.2199214 127.4311885 128.4949740 127.3448707 125.1128749 128.3447234
 132.7248790 124.5205784 126.0637728 132.1582276 124.6400000 127.4890000
 130.7410000 124.6400000 127.4890000 130.8620000 123.6680000 127.5200000
 130.3371057 124.0911082 128.2162381 129.9433487 124.9004789 129.7747628
 129.2544599 127.7963217 128.4517677 127.9623039 127.1425211 129.5190313
 127.5624407 128.2141457 128.1192770 127.7519448 124.1390218 128.0517150
 126.2895256 125.1672270 128.0700774 127.4745857 125.2735068 129.4186063
 132.3339904 125.3334292 125.4409391 133.8181579 124.5773141 126.0857570
 132.5073253 125.5697113 127.9473684 132.5037374 123.8194533 128.1265830
 130.4366078 125.5715210 127.4890000 131.7120000 122.2150000 127.6610000
 128.2310000 127.8350000 136.4580000 128.6690000 127.5130000 135.1400000
 130.1856870 127.6460422 135.0720128 130.7918325 126.7454892 135.9962661
 127.2610000 127.7180000 136.4380000 128.1891500 128.1960745 134.4329185
 128.3604998 126.4848257 134.9269032 130.5017786 128.6589699 135.3430657
 130.5538866 127.4130970 134.0694997 130.3572520 126.9303657 136.8518065
 130.1630000 125.0510000 141.8810000 128.1090000 126.1980000 140.7650000
 128.2199214 127.4311885 141.6599740 127.3448707 125.1128749 141.5097234
 132.7248790 124.5205784 139.2287728 132.1582276 124.6400000 140.6540000
 130.7410000 124.6400000 140.6540000 130.8620000 123.6680000 140.6850000
 130.3371057 124.0911082 141.3812381 129.9433487 124.9004789 142.9397628
 129.2544599 127.7963217 141.6167677 127.9623039 127.1425211 142.6840313
 127.5624407 128.2141457 141.2842770 127.7519448 124.1390218 141.2167150
 126.2895256 125.1672270 141.2350774 127.4745857 125.2735068 142.5836063
 132.3339904 125.3334292 138.6059391 133.8181579 124.5773141 139.2507570
 132.5073253 125.5697113 141.1123684 132.5037374 123.8194533 141.2915830
 130.4366078 125.5715210 140.6540000 131.7120000 122.2150000 140.8260000
 128.2310000 127.8350000 149.6230000 128.6690000 127.5130000 148.3050000
 130.1856870 127.6460422 148.2370128 130.7918325 126.7454892 149.1612661
 127.2610000 127.7180000 149.6030000 128.1891500 128.1960745 147.5979185
 128.3604998 126.4848257 148.0919032 130.5017786 128.6589699 148.5080657
 130.5538866 127.4130970 147.2344997 130.3572520 126.9303657 150.0168065
 130.1630000 125.0510000 155.0460000 128.1090000 126.1980000 153.9300000
 128.2199214 127.4311885 154.8249740 127.3448707 125.1128749 154.6747234
 132.7248790 124.5205784 152.3937728 132.1582276 124.6400000 153.8190000
 130.7410000 124.6400000 153.8190000 130.8620000 123.6680000 153.8500000
 130.3371057 124.0911082 154.5462381 129.9433487 124.9004789 156.1047628
 129.2544599 127.7963217 154.7817677 127.9623039 127.1425211 155.8490313
 127.5624407 128.2141457 154.4492770 127.7519448 124.1390218 154.3817150
 126.2895256 125.1672270 154.4000774 127.4745857 125.2735068 155.7486063
 132.3339904 125.3334292 151.7709391 133.8181579 124.5773141 152.4157570
 132.5073253 125.5697113 154.2773684 132.5037374 123.8194533 154.4565830
 130.4366078 125.5715210 153.8190000 131.7120000 122.2150000 153.9910000
 128.2310000 127.8350000 162.7880000 128.6690000 127.5130000 161.4700000
 130.1856870 127.6460422 161.4020128 130.7918325 126.7454892 162.3262661
 127.2610000 127.7180000 162.7680000 128.1891500 128.1960745 160.7629185
 128.3604998 126.4848257 161.2569032 130.5017786 128.6589699 161.6730657
 130.5538866 127.4130970 160.3994997 130.3572520 126.9303657 163.1818065
 130.1630000 125.0510000 168.2110000 128.1090000 126.1980000 167.0950000
 128.2199214 127.4311885 167.9899740 127.3448707 125.1128749 167.8397234
 132.7248790 124.5205784 165.5587728 132.1582276 124.6400000 166.9840000
 130.7410000 124.6400000 166.9840000 130.8620000 123.6680000 167.0150000
 130.3371057 124.0911082 167.7112381 129.9433487 124.9004789 169.2697628
 129.2544599 127.7963217 167.9467677 127.9623039 127.1425211 169.0140313
 127.5624407 128.2141457 167.6142770 127.7519448 124.1390218 167.5467150
 126.2895256 125.1672270 167.5650774 127.4745857 125.2735068 168.9136063
 132.3339904 125.3334292 164.9359391 133.8181579 124.5773141 165.5807570
 132.5073253 125.5697113 167.4423684 132.5037374 123.8194533 167.6215830
 130.4366078 125.5715210 166.9840000 131.7120000 122.2150000 167.1560000
 128.2310000 127.8350000 175.9530000 128.6690000 127.5130000 174.6350000
 130.1856870 127.6460422 174.5670128 130.7918325 126.7454892 175.4912661
 127.2610000 127.7180000 175.9330000 128.1891500 128.1960745 173.9279185
 128.3604998 126.4848257 174.4219032 130.5017786 128.6589699 174.8380657
 130.5538866 127.4130970 173.5644997 130.3572520 126.9303657 176.3468065
 130.1630000 125.0510000 181.3770000 128.1090000 126.1980000 180.2610000
 128.2199214 127.4311885 181.1559740 127.3448707 125.1128749 181.0057234
 132.7248790 124.5205784 178.7247728 132.1582276 124.6400000 180.1500000
 130.7410000 124.6400000 180.1500000 130.8620000 123.6680000 180.1810000
 130.3371057 124.0911082 180.8772381 129.9433487 124.9004789 182.4357628
 129.2544599 127.7963217 181.1127677 127.9623039 127.1425211 182.1800313
 127.5624407 128.2141457 180.7802770 127.7519448 124.1390218 180.7127150
 126.2895256 125.1672270 180.7310774 127.4745857 125.2735068 182.0796063
 132.3339904 125.3334292 178.1019391 133.8181579 124.5773141 178.7467570
 132.5073253 125.5697113 180.6083684 132.5037374 123.8194533 180.7875830
 130.4366078 125.5715210 180.1500000 131.7120000 122.2150000 180.3220000
 128.2310000 127.8350000 189.1190000 128.6690000 127.5130000 187.8010000
 130.1856870 127.6460422 187.7330128 130.7918325 126.7454892 188.6572661
 127.2610000 127.7180000 189.0990000 128.1891500 128.1960745 187.0939185
 128.3604998 126.4848257 187.5879032 130.5017786 128.6589699 188.0040657
 130.5538866 127.4130970 186.7304997 130.3572520 126.9303657 189.5128065
 130.1630000 125.0510000 194.5420000 128.1090000 126.1980000 193.4260000
 128.2199214 127.4311885 194.3209740 127.3448707 125.1128749 194.1707234
 132.7248790 124.5205784 191.8897728 132.1582276 124.6400000 193.3150000
 130.7410000 124.6400000 193.3150000 130.8620000 123.6680000 193.3460000
 130.3371057 124.0911082 194.0422381 129.9433487 124.9004789 195.6007628
 129.2544599 127.7963217 194.2777677 127.9623039 127.1425211 195.3450313
 127.5624407 128.2141457 193.9452770 127.7519448 124.1390218 193.8777150
 126.2895256 125.1672270 193.8960774 127.4745857 125.2735068 195.2446063
 132.3339904 125.3334292 191.2669391 133.8181579 124.5773141 191.9117570
 132.5073253 125.5697113 193.7733684 132.5037374 123.8194533 193.9525830
 130.4366078 125.5715210 193.3150000 131.7120000 122.2150000 193.4870000
 128.2310000 127.8350000 202.2840000 128.6690000 127.5130000 200.9660000
 130.1856870 127.6460422 200.8980128 130.7918325 126.7454892 201.8222661
 127.2610000 127.7180000 202.2640000 128.1891500 128.1960745 200.2589185
 128.3604998 126.4848257 200.7529032 130.5017786 128.6589699 201.1690657
 130.5538866 127.4130970 199.8954997 130.3572520 126.9303657 202.6778065
 130.1630000 132.3670000  76.0550000 128.1090000 133.5140000  74.9390000
 128.2199214 134.7471885  75.8339740 127.3448707 132.4288749  75.6837234
 132.7248790 131.8365784  73.4027728 132.1582276 131.9560000  74.8280000
 130.7410000 131.9560000  74.8280000 130.8620000 130.9840000  74.8590000
 130.3371057 131.4071082  75.5552381 129.9433487 132.2164789  77.1137628
 129.2544599 135.1123217  75.7907677 127.9623039 134.4585211  76.8580313
 127.5624407 135.5301457  75.4582770 127.7519448 131.4550218  75.3907150
 126.2895256 132.4832270  75.4090774 127.4745857 132.5895068  76.7576063
 132.3339904 132.6494292  72.7799391 133.8181579 131.8933141  73.4247570
 132.5073253 132.8857113  75.2863684 132.5037374 131.1354533  75.4655830
 130.4366078 132.8875210  74.8280000 131.7120000 129.5310000  75.0000000
 128.2310000 135.1510000  83.7970000 128.6690000 134.8290000  82.4790000
 130.1856870 134.9620422  82.4110128 130.7918325 134.0614892  83.3352661
 127.2610000 135.0340000  83.7770000 128.1891500 135.5120745  81.7719185
 128.3604998 133.8008257  82.2659032 130.5017786 135.9749699  82.6820657
 130.5538866 134.7290970  81.4084997 130.3572520 134.2463657  84.1908065
 130.1630000 132.3670000  89.2200000 128.1090000 133.5140000  88.1040000
 128.2199214 134.7471885  88.9989740 127.3448707 132.4288749  88.8487234
 132.7248790 131.8365784  86.5677728 132.1582276 131.9560000  87.9930000
 130.7410000 131.9560000  87.9930000 130.8620000 130.9840000  88.0240000
 130.3371057 131.4071082  88.7202381 129.9433487 132.2164789  90.2787628
 129.2544599 135.1123217  88.9557677 127.9623039 134.4585211  90.0230313
 127.5624407 135.5301457  88.6232770 127.7519448 131.4550218  88.5557150
 126.2895256 132.4832270  88.5740774 127.4745857 132.5895068  89.9226063
 132.3339904 132.6494292  85.9449391 133.8181579 131.8933141  86.5897570
 132.5073253 132.8857113  88.4513684 132.5037374 131.1354533  88.6305830
 130.4366078 132.8875210  87.9930000 131.7120000 129.5310000  88.1650000
 128.2310000 135.1510000  96.9620000 128.6690000 134.8290000  95.6440000
 130.1856870 134.9620422  95.5760128 130.7918325 134.0614892  96.5002661
 127.2610000 135.0340000  96.9420000 128.1891500 135.5120745  94.9369185
 128.3604998 133.8008257  95.4309032 130.5017786 135.9749699  95.8470657
 130.5538866 134.7290970  94.5734997 130.3572520 134.2463657  97.3558065
 130.1630000 132.3670000 102.3850000 128.1090000 133.5140000 101.2690000
 128.2199214 134.7471885 102.1639740 127.3448707 132.4288749 102.0137234
 132.7248790 131.8365784  99.7327728 132.1582276 131.9560000 101.1580000
 130.7410000 131.9560000 101.1580000 130.8620000 130.9840000 101.1890000
 130.3371057 131.4071082 101.8852381 129.9433487 132.2164789 103.4437628
 129.2544599 135.1123217 102.1207677 127.9623039 134.4585211 103.1880313
 127.5624407 135.5301457 101.7882770 127.7519448 131.4550218 101.7207150
 126.2895256 132.4832270 101.7390774 127.4745857 132.5895068 103.0876063
 132.3339904 132.6494292  99.1099391 133.8181579 131.8933141  99.7547570
 132.5073253 132.8857113 101.6163684 132.5037374 131.1354533 101.7955830
 130.4366078 132.8875210 101.1580000 131.7120000 129.5310000 101.3300000
 128.2310000 135.1510000 110.1270000 128.6690000 134.8290000 108.8090000
 130.1856870 134.9620422 108.7410128 130.7918325 134.0614892 109.6652661
 127.2610000 135.0340000 110.1070000 128.1891500 135.5120745 108.1019185
 128.3604998 133.8008257 108.5959032 130.5017786 135.9749699 109.0120657
 130.5538866 134.7290970 107.7384997 130.3572520 134.2463657 110.5208065
 130.1630000 132.3670000 115.5510000 128.1090000 133.5140000 114.4350000
 128.2199214 134.7471885 115.3299740 127.3448707 132.4288749 115.1797234
 132.7248790 131.8365784 112.8987728 132.1582276 131.9560000 114.3240000
 130.7410000 131.9560000 114.3240000 130.8620000 130.9840000 114.3550000
 130.3371057 131.4071082 115.0512381 129.9433487 132.2164789 116.6097628
 129.2544599 135.1123217 115.2867677 127.9623039 134.4585211 116.3540313
 127.5624407 135.5301457 114.9542770 127.7519448 131.4550218 114.8867150
 126.2895256 132.4832270 114.9050774 127.4745857 132.5895068 116.2536063
 132.3339904 132.6494292 112.2759391 133.8181579 131.8933141 112.9207570
 132.5073253 132.8857113 114.7823684 132.5037374 131.1354533 114.9615830
 130.4366078 132.8875210 114.3240000 131.7120000 129.5310000 114.4960000
 128.2310000 135.1510000 123.2930000 128.6690000 134.8290000 121.9750000
 130.1856870 134.9620422 121.9070128 130.7918325 134.0614892 122.8312661
 127.2610000 135.0340000 123.2730000 128.1891500 135.5120745 121.2679185
 128.3604998 133.8008257 121.7619032 130.5017786 135.9749699 122.1780657
 130.5538866 134.7290970 120.9044997 130.3572520 134.2463657 123.6868065
 130.1630000 132.3670000 128.7160000 128.1090000 133.5140000 127.6000000
 128.2199214 134.7471885 128.4949740 127.3448707 132.4288749 128.3447234
 132.7248790 131.8365784 126.0637728 132.1582276 131.9560000 127.4890000
 130.7410000 131.9560000 127.4890000 130.8620000 130.9840000 127.5200000
 130.3371057 131.4071082 128.2162381 129.9433487 132.2164789 129.7747628
 129.2544599 135.1123217 128.4517677 127.9623039 134.4585211 129.5190313
 127.5624407 135.5301457 128.1192770 127.7519448 131.4550218 128.0517150
 126.2895256 132.4832270 128.0700774 127.4745857 132.5895068 129.4186063
 132.3339904 132.6494292 125.4409391 133.8181579 131.8933141 126.0857570
 132.5073253 132.8857113 127.9473684 132.5037374 131.1354533 128.1265830
 130.4366078 132.8875210 127.4890000 131.7120000 129.5310000 127.6610000
 128.2310000 135.1510000 136.4580000 128.6690000 134.8290000 135.1400000
 130.1856870 134.9620422 135.0720128 130.7918325 134.0614892 135.9962661
 127.2610000 135.0340000 136.4380000 128.1891500 135.5120745 134.4329185
 128.3604998 133.8008257 134.9269032 130.5017786 135.9749699 135.3430657
 130.5538866 134.7290970 134.0694997 130.3572520 134.2463657 136.8518065
 130.1630000 132.3670000 141.8810000 128.1090000 133.5140000 140.7650000
 128.2199214 134.7471885 141.6599740 127.3448707 132.4288749 141.5097234
 132.7248790 131.8365784 139.2287728 132.1582276 131.9560000 140.6540000
 130.7410000 131.9560000 140.6540000 130.8620000 130.9840000 140.6850000
 130.3371057 131.4071082 141.3812381 129.9433487 132.2164789 142.9397628
 129.2544599 135.1123217 141.6167677 127.9623039 134.4585211 142.6840313
 127.5624407 135.5301457 141.2842770 127.7519448 131.4550218 141.2167150
 126.2895256 132.4832270 141.2350774 127.4745857 132.5895068 142.5836063
 132.3339904 132.6494292 138.6059391 133.8181579 131.8933141 139.2507570
 132.5073253 132.8857113 141.1123684 132.5037374 131.1354533 141.2915830
 130.4366078 132.8875210 140.6540000 131.7120000 129.5310000 140.8260000
 128.2310000 135.1510000 149.6230000 128.6690000 134.8290000 148.3050000
 130.1856870 134.9620422 148.2370128 130.7918325 134.0614892 149.1612661
 127.2610000 135.0340000 149.6030000 128.1891500 135.5120745 147.5979185
 128.3604998 133.8008257 148.0919032 130.5017786 135.9749699 148.5080657
 130.5538866 134.7290970 147.2344997 130.3572520 134.2463657 150.0168065
 130.1630000 132.3670000 155.0460000 128.1090000 133.5140000 153.9300000
 128.2199214 134.7471885 154.8249740 127.3448707 132.4288749 154.6747234
 132.7248790 131.8365784 152.3937728 132.1582276 131.9560000 153.8190000
 130.7410000 131.9560000 153.8190000 130.8620000 130.9840000 153.8500000
 130.3371057 131.4071082 154.5462381 129.9433487 132.2164789 156.1047628
 129.2544599 135.1123217 154.7817677 127.9623039 134.4585211 155.8490313
 127.5624407 135.5301457 154.4492770 127.7519448 131.4550218 154.3817150
 126.2895256 132.4832270 154.4000774 127.4745857 132.5895068 155.7486063
 132.3339904 132.6494292 151.7709391 133.8181579 131.8933141 152.4157570
 132.5073253 132.8857113 154.2773684 132.5037374 131.1354533 154.4565830
 130.4366078 132.8875210 153.8190000 131.7120000 129.5310000 153.9910000
 128.2310000 135.1510000 162.7880000 128.6690000 134.8290000 161.4700000
 130.1856870 134.9620422 161.4020128 130.7918325 134.0614892 162.3262661
 127.2610000 135.0340000 162.7680000 128.1891500 135.5120745 160.7629185
 128.3604998 133.8008257 161.2569032 130.5017786 135.9749699 161.6730657
 130.5538866 134.7290970 160.3994997 130.3572520 134.2463657 163.1818065
 130.1630000 132.3670000 168.2110000 128.1090000 133.5140000 167.0950000
 128.2199214 134.7471885 167.9899740 127.3448707 132.4288749 167.8397234
 132.7248790 131.8365784 165.5587728 132.1582276 131.9560000 166.9840000
 130.7410000 131.9560000 166.9840000 130.8620000 130.9840000 167.0150000
 130.3371057 131.4071082 167.7112381 129.9433487 132.2164789 169.2697628
 129.2544599 135.1123217 167.9467677 127.9623039 134.4585211 169.0140313
 127.5624407 135.5301457 167.6142770 127.7519448 131.4550218 167.5467150
 126.2895256 132.4832270 167.5650774 127.4745857 132.5895068 168.9136063
 132.3339904 132.6494292 164.9359391 133.8181579 131.8933141 165.5807570
 132.5073253 132.8857113 167.4423684 132.5037374 131.1354533 167.6215830
 130.4366078 132.8875210 166.9840000 131.7120000 129.5310000 167.1560000
 128.2310000 135.1510000 175.9530000 128.6690000 134.8290000 174.6350000
 130.1856870 134.9620422 174.5670128 130.7918325 134.0614892 175.4912661
 127.2610000 135.0340000 175.9330000 128.1891500 135.5120745 173.9279185
 128.3604998 133.8008257 174.4219032 130.5017786 135.9749699 174.8380657
 130.5538866 134.7290970 173.5644997 130.3572520 134.2463657 176.3468065
 130.1630000 132.3670000 181.3770000 128.1090000 133.5140000 180.2610000
 128.2199214 134.7471885 181.1559740 127.3448707 132.4288749 181.0057234
 132.7248790 131.8365784 178.7247728 132.1582276 131.9560000 180.1500000
 130.7410000 131.9560000 180.1500000 130.8620000 130.9840000 180.1810000
 130.3371057 131.4071082 180.8772381 129.9433487 132.2164789 182.4357628
 129.2544599 135.1123217 181.1127677 127.9623039 134.4585211 182.1800313
 127.5624407 135.5301457 180.7802770 127.7519448 131.4550218 180.7127150
 126.2895256 132.4832270 180.7310774 127.4745857 132.5895068 182.0796063
 132.3339904 132.6494292 178.1019391 133.8181579 131.8933141 178.7467570
 132.5073253 132.8857113 180.6083684 132.5037374 131.1354533 180.7875830
 130.4366078 132.8875210 180.1500000 131.7120000 129.5310000 180.3220000
 128.2310000 135.1510000 189.1190000 128.6690000 134.8290000 187.8010000
 130.1856870 134.9620422 187.7330128 130.7918325 134.0614892 188.6572661
 127.2610000 135.0340000 189.0990000 128.1891500 135.5120745 187.0939185
 128.3604998 133.8008257 187.5879032 130.5017786 135.9749699 188.0040657
 130.5538866 134.7290970 186.7304997 130.3572520 134.2463657 189.5128065
 130.1630000 132.3670000 194.5420000 128.1090000 133.5140000 193.4260000
 128.2199214 134.7471885 194.3209740 127.3448707 132.4288749 194.1707234
 132.7248790 131.8365784 191.8897728 132.1582276 131.9560000 193.3150000
 130.7410000 131.9560000 193.3150000 130.8620000 130.9840000 193.3460000
 130.3371057 131.4071082 194.0422381 129.9433487 132.2164789 195.6007628
 129.2544599 135.1123217 194.2777677 127.9623039 134.4585211 195.3450313
 127.5624407 135.5301457 193.9452770 127.7519448 131.4550218 193.8777150
 126.2895256 132.4832270 193.8960774 127.4745857 132.5895068 195.2446063
 132.3339904 132.6494292 191.2669391 133.8181579 131.8933141 191.9117570
 132.5073253 132.8857113 193.7733684 132.5037374 131.1354533 193.9525830
 130.4366078 132.8875210 193.3150000 131.7120000 129.5310000 193.4870000
 128.2310000 135.1510000 202.2840000 128.6690000 134.8290000 200.9660000
 130.1856870 134.9620422 200.8980128 130.7918325 134.0614892 201.8222661
 127.2610000 135.0340000 202.2640000 128.1891500 135.5120745 200.2589185
 128.3604998 133.8008257 200.7529032 130.5017786 135.9749699 201.1690657
 130.5538866 134.7290970 199.8954997 130.3572520 134.2463657 202.6778065
 130.1630000 139.6840000  76.0550000 128.1090000 140.8310000  74.9390000
 128.2199214 142.0641885  75.8339740 127.3448707 139.7458749  75.6837234
 132.7248790 139.1535784  73.4027728 132.1582276 139.2730000  74.8280000
 130.7410000 139.2730000  74.8280000 130.8620000 138.3010000  74.8590000
 130.3371057 138.7241082  75.5552381 129.9433487 139.5334789  77.1137628
 129.2544599 142.4293217  75.7907677 127.9623039 141.7755211  76.8580313
 127.5624407 142.8471457  75.4582770 127.7519448 138.7720218  75.3907150
 126.2895256 139.8002270  75.4090774 127.4745857 139.9065068  76.7576063
 132.3339904 139.9664292  72.7799391 133.8181579 139.2103141  73.4247570
 132.5073253 140.2027113  75.2863684 132.5037374 138.4524533  75.4655830
 130.4366078 140.2045210  74.8280000 131.7120000 136.8480000  75.0000000
 128.2310000 142.4680000  83.7970000 128.6690000 142.1460000  82.4790000
 130.1856870 142.2790422  82.4110128 130.7918325 141.3784892  83.3352661
 127.2610000 142.3510000  83.7770000 128.1891500 142.8290745  81.7719185
 128.3604998 141.1178257  82.2659032 130.5017786 143.2919699  82.6820657
 130.5538866 142.0460970  81.4084997 130.3572520 141.5633657  84.1908065
 130.1630000 139.6840000  89.2200000 128.1090000 140.8310000  88.1040000
 128.2199214 142.0641885  88.9989740 127.3448707 139.7458749  88.8487234
 132.7248790 139.1535784  86.5677728 132.1582276 139.2730000  87.9930000
 130.7410000 139.2730000  87.9930000 130.8620000 138.3010000  88.0240000
 130.3371057 138.7241082  88.7202381 129.9433487 139.5334789  90.2787628
 129.2544599 142.4293217  88.9557677 127.9623039 141.7755211  90.0230313
 127.5624407 142.8471457  88.6232770 127.7519448 138.7720218  88.5557150
 126.2895256 139.8002270  88.5740774 127.4745857 139.9065068  89.9226063
 132.3339904 139.9664292  85.9449391 133.8181579 139.2103141  86.5897570
 132.5073253 140.2027113  88.4513684 132.5037374 138.4524533  88.6305830
 130.4366078 140.2045210  87.9930000 131.7120000 136.8480000  88.1650000
 128.2310000 142.4680000  96.9620000 128.6690000 142.1460000  95.6440000
 130.1856870 142.2790422  95.5760128 130.7918325 141.3784892  96.5002661
 127.2610000 142.3510000  96.9420000 128.1891500 142.8290745  94.9369185
 128.3604998 141.1178257  95.4309032 130.5017786 143.2919699  95.8470657
 130.5538866 142.0460970  94.5734997 130.3572520 141.5633657  97.3558065
 130.1630000 139.6840000 102.3850000 128.1090000 140.8310000 101.2690000
 128.2199214 142.0641885 102.1639740 127.3448707 139.7458749 102.0137234
 132.7248790 139.1535784  99.7327728 132.1582276 139.2730000 101.1580000
 130.7410000 139.2730000 101.1580000 130.8620000 138.3010000 101.1890000
 130.3371057 138.7241082 101.8852381 129.9433487 139.5334789 103.4437628
 129.2544599 142.4293217 102.1207677 127.9623039 141.7755211 103.1880313
 127.5624407 142.8471457 101.7882770 127.7519448 138.7720218 101.7207150
 126.2895256 139.8002270 101.7390774 127.4745857 139.9065068 103.0876063
 132.3339904 139.9664292  99.1099391 133.8181579 139.2103141  99.7547570
 132.5073253 140.2027113 101.6163684 132.5037374 138.4524533 101.7955830
 130.4366078 140.2045210 101.1580000 131.7120000 136.8480000 101.3300000
 128.2310000 142.4680000 110.1270000 128.6690000 142.1460000 108.8090000
 130.1856870 142.2790422 108.7410128 130.7918325 141.3784892 109.6652661
 127.2610000 142.3510000 110.1070000 128.1891500 142.8290745 108.1019185
 128.3604998 141.1178257 108.5959032 130.5017786 143.2919699 109.0120657
 130.5538866 142.0460970 107.7384997 130.3572520 141.5633657 110.5208065
 130.1630000 139.6840000 115.5510000 128.1090000 140.8310000 114.4350000
 128.2199214 142.0641885 115.3299740 127.3448707 139.7458749 115.1797234
 132.7248790 139.1535784 112.8987728 132.1582276 139.2730000 114.3240000
 130.7410000 139.2730000 114.3240000 130.8620000 138.3010000 114.3550000
 130.3371057 138.7241082 115.0512381 129.9433487 139.5334789 116.6097628
 129.2544599 142.4293217 115.2867677 127.9623039 141.7755211 116.3540313
 127.5624407 142.8471457 114.9542770 127.7519448 138.7720218 114.8867150
 126.2895256 139.8002270 114.9050774 127.4745857 139.9065068 116.2536063
 132.3339904 139.9664292 112.2759391 133.8181579 139.2103141 112.9207570
 132.5073253 140.2027113 114.7823684 132.5037374 138.4524533 114.9615830
 130.4366078 140.2045210 114.3240000 131.7120000 136.8480000 114.4960000
 128.2310000 142.4680000 123.2930000 128.6690000 142.1460000 121.9750000
 130.1856870 142.2790422 121.9070128 130.7918325 141.3784892 122.8312661
 127.2610000 142.3510000 123.2730000 128.1891500 142.8290745 121.2679185
 128.3604998 141.1178257 121.7619032 130.5017786 143.2919699 122.1780657
 130.5538866 142.0460970 120.9044997 130.3572520 141.5633657 123.6868065
 130.1630000 139.6840000 128.7160000 128.1090000 140.8310000 127.6000000
 128.2199214 142.0641885 128.4949740 127.3448707 139.7458749 128.3447234
 132.7248790 139.1535784 126.0637728 132.1582276 139.2730000 127.4890000
 130.7410000 139.2730000 127.4890000 130.8620000 138.3010000 127.5200000
 130.3371057 138.7241082 128.2162381 129.9433487 139.5334789 129.7747628
 129.2544599 142.4293217 128.4517677 127.9623039 141.7755211 129.5190313
 127.5624407 142.8471457 128.1192770 127.7519448 138.7720218 128.0517150
 126.2895256 139.8002270 128.0700774 127.4745857 139.9065068 129.4186063
 132.3339904 139.9664292 125.4409391 133.8181579 139.2103141 126.0857570
 132.5073253 140.2027113 127.9473684 132.5037374 138.4524533 128.1265830
 130.4366078 140.2045210 127.4890000 131.7120000 136.8480000 127.6610000
 128.2310000 142.4680000 136.4580000 128.6690000 142.1460000 135.1400000
 130.1856870 142.2790422 135.0720128 130.7918325 141.3784892 135.9962661
 127.2610000 142.3510000 136.4380000 128.1891500 142.8290745 134.4329185
 128.3604998 141.1178257 134.9269032 130.5017786 143.2919699 135.3430657
 130.5538866 142.0460970 134.0694997 130.3572520 141.5633657 136.8518065
 130.1630000 139.6840000 141.8810000 128.1090000 140.8310000 140.7650000
 128.2199214 142.0641885 141.6599740 127.3448707 139.7458749 141.5097234
 132.7248790 139.1535784 139.2287728 132.1582276 139.2730000 140.6540000
 130.7410000 139.2730000 140.6540000 130.8620000 138.3010000 140.6850000
 130.3371057 138.7241082 141.3812381 129.9433487 139.5334789 142.9397628
 129.2544599 142.4293217 141.6167677 127.9623039 141.7755211 142.6840313
 127.5624407 142.8471457 141.2842770 127.7519448 138.7720218 141.2167150
 126.2895256 139.8002270 141.2350774 127.4745857 139.9065068 142.5836063
 132.3339904 139.9664292 138.6059391 133.8181579 139.2103141 139.2507570
 132.5073253 140.2027113 141.1123684 132.5037374 138.4524533 141.2915830
 130.4366078 140.2045210 140.6540000 131.7120000 136.8480000 140.8260000
 128.2310000 142.4680000 149.6230000 128.6690000 142.1460000 148.3050000
 130.1856870 142.2790422 148.2370128 130.7918325 141.3784892 149.1612661
 127.2610000 142.3510000 149.6030000 128.1891500 142.8290745 147.5979185
 128.3604998 141.1178257 148.0919032 130.5017786 143.2919699 148.5080657
 130.5538866 142.0460970 147.2344997 130.3572520 141.5633657 150.0168065
 130.1630000 139.6840000 155.0460000 128.1090000 140.8310000 153.9300000
 128.2199214 142.0641885 154.8249740 127.3448707 139.7458749 154.6747234
 132.7248790 139.1535784 152.3937728 132.1582276 139.2730000 153.8190000
 130.7410000 139.2730000 153.8190000 130.8620000 138.3010000 153.8500000
 130.3371057 138.7241082 154.5462381 129.9433487 139.5334789 156.1047628
 129.2544599 142.4293217 154.7817677 127.9623039 141.7755211 155.8490313
 127.5624407 142.8471457 154.4492770 127.7519448 138.7720218 154.3817150
 126.2895256 139.8002270 154.4000774 127.4745857 139.9065068 155.7486063
 132.3339904 139.9664292 151.7709391 133.8181579 139.2103141 152.4157570
 132.5073253 140.2027113 154.2773684 132.5037374 138.4524533 154.4565830
 130.4366078 140.2045210 153.8190000 131.7120000 136.8480000 153.9910000
 128.2310000 142.4680000 162.7880000 128.6690000 142.1460000 161.4700000
 130.1856870 142.2790422 161.4020128 130.7918325 141.3784892 162.3262661
 127.2610000 142.3510000 162.7680000 128.1891500 142.8290745 160.7629185
 128.3604998 141.1178257 161.2569032 130.5017786 143.2919699 161.6730657
 130.5538866 142.0460970 160.3994997 130.3572520 141.5633657 163.1818065
 130.1630000 139.6840000 168.2110000 128.1090000 140.8310000 167.0950000
 128.2199214 142.0641885 167.9899740 127.3448707 139.7458749 167.8397234
 132.7248790 139.1535784 165.5587728 132.1582276 139.2730000 166.9840000
 130.7410000 139.2730000 166.9840000 130.8620000 138.3010000 167.0150000
 130.3371057 138.7241082 167.7112381 129.9433487 139.5334789 169.2697628
 129.2544599 142.4293217 167.9467677 127.9623039 141.7755211 169.0140313
 127.5624407 142.8471457 167.6142770 127.7519448 138.7720218 167.5467150
 126.2895256 139.8002270 167.5650774 127.4745857 139.9065068 168.9136063
 132.3339904 139.9664292 164.9359391 133.8181579 139.2103141 165.5807570
 132.5073253 140.2027113 167.4423684 132.5037374 138.4524533 167.6215830
 130.4366078 140.2045210 166.9840000 131.7120000 136.8480000 167.1560000
 128.2310000 142.4680000 175.9530000 128.6690000 142.1460000 174.6350000
 130.1856870 142.2790422 174.5670128 130.7918325 141.3784892 175.4912661
 127.2610000 142.3510000 175.9330000 128.1891500 142.8290745 173.9279185
 128.3604998 141.1178257 174.4219032 130.5017786 143.2919699 174.8380657
 130.5538866 142.0460970 173.5644997 130.3572520 141.5633657 176.3468065
 130.1630000 139.6840000 181.3770000 128.1090000 140.8310000 180.2610000
 128.2199214 142.0641885 181.1559740 127.3448707 139.7458749 181.0057234
 132.7248790 139.1535784 178.7247728 132.1582276 139.2730000 180.1500000
 130.7410000 139.2730000 180.1500000 130.8620000 138.3010000 180.1810000
 130.3371057 138.7241082 180.8772381 129.9433487 139.5334789 182.4357628
 129.2544599 142.4293217 181.1127677 127.9623039 141.7755211 182.1800313
 127.5624407 142.8471457 180.7802770 127.7519448 138.7720218 180.7127150
 126.2895256 139.8002270 180.7310774 127.4745857 139.9065068 182.0796063
 132.3339904 139.9664292 178.1019391 133.8181579 139.2103141 178.7467570
 132.5073253 140.2027113 180.6083684 132.5037374 138.4524533 180.7875830
 130.4366078 140.2045210 180.1500000 131.7120000 136.8480000 180.3220000
 128.2310000 142.4680000 189.1190000 128.6690000 142.1460000 187.8010000
 130.1856870 142.2790422 187.7330128 130.7918325 141.3784892 188.6572661
 127.2610000 142.3510000 189.0990000 128.1891500 142.8290745 187.0939185
 128.3604998 141.1178257 187.5879032 130.5017786 143.2919699 188.0040657
 130.5538866 142.0460970 186.7304997 130.3572520 141.5633657 189.5128065
 130.1630000 139.6840000 194.5420000 128.1090000 140.8310000 193.4260000
 128.2199214 142.0641885 194.3209740 127.3448707 139.7458749 194.1707234
 132.7248790 139.1535784 191.8897728 132.1582276 139.2730000 193.3150000
 130.7410000 139.2730000 193.3150000 130.8620000 138.3010000 193.3460000
 130.3371057 138.7241082 194.0422381 129.9433487 139.5334789 195.6007628
 129.2544599 142.4293217 194.2777677 127.9623039 141.7755211 195.3450313
 127.5624407 142.8471457 193.9452770 127.7519448 138.7720218 193.8777150
 126.2895256 139.8002270 193.8960774 127.4745857 139.9065068 195.2446063
 132.3339904 139.9664292 191.2669391 133.8181579 139.2103141 191.9117570
 132.5073253 140.2027113 193.7733684 132.5037374 138.4524533 193.9525830
 130.4366078 140.2045210 193.3150000 131.7120000 136.8480000 193.4870000
 128.2310000 142.4680000 202.2840000 128.6690000 142.1460000 200.9660000
 130.1856870 142.2790422 200.8980128 130.7918325 141.3784892 201.8222661
 127.2610000 142.3510000 202.2640000 128.1891500 142.8290745 200.2589185
 128.3604998 141.1178257 200.7529032 130.5017786 143.2919699 201.1690657
 130.5538866 142.0460970 199.8954997 130.3572520 141.5633657 202.6778065
 142.8410000  73.8360000  76.0550000 140.7870000  74.9830000  74.9390000
 140.8979214  76.2161885  75.8339740 140.0228707  73.8978749  75.6837234
 145.4028790  73.3055784  73.4027728 144.8362276  73.4250000  74.8280000
 143.4190000  73.4250000  74.8280000 143.5400000  72.4530000  74.8590000
 143.0151057  72.8761082  75.5552381 142.6213487  73.6854789  77.1137628
 141.9324599  76.5813217  75.7907677 140.6403039  75.9275211  76.8580313
 140.2404407  76.9991457  75.4582770 140.4299448  72.9240218  75.3907150
 138.9675256  73.9522270  75.4090774 140.1525857  74.0585068  76.7576063
 145.0119904  74.1184292  72.7799391 146.4961579  73.3623141  73.4247570
 145.1853253  74.3547113  75.2863684 145.1817374  72.6044533  75.4655830
 143.1146078  74.3565210  74.8280000 144.3900000  71.0000000  75.0000000
 140.9090000  76.6200000  83.7970000 141.3470000  76.2980000  82.4790000
 142.8636870  76.4310422  82.4110128 143.4698325  75.5304892  83.3352661
 139.9390000  76.5030000  83.7770000 140.8671500  76.9810745  81.7719185
 141.0384998  75.2698257  82.2659032 143.1797786  77.4439699  82.6820657
 143.2318866  76.1980970  81.4084997 143.0352520  75.7153657  84.1908065
 142.8410000  73.8360000  89.2200000 140.7870000  74.9830000  88.1040000
 140.8979214  76.2161885  88.9989740 140.0228707  73.8978749  88.8487234
 145.4028790  73.3055784  86.5677728 144.8362276  73.4250000  87.9930000
 143.4190000  73.4250000  87.9930000 143.5400000  72.4530000  88.0240000
 143.0151057  72.8761082  88.7202381 142.6213487  73.6854789  90.2787628
 141.9324599  76.5813217  88.9557677 140.6403039  75.9275211  90.0230313
 140.2404407  76.9991457  88.6232770 140.4299448  72.9240218  88.5557150
 138.9675256  73.9522270  88.5740774 140.1525857  74.0585068  89.9226063
 145.0119904  74.1184292  85.9449391 146.4961579  73.3623141  86.5897570
 145.1853253  74.3547113  88.4513684 145.1817374  72.6044533  88.6305830
 143.1146078  74.3565210  87.9930000 144.3900000  71.0000000  88.1650000
 140.9090000  76.6200000  96.9620000 141.3470000  76.2980000  95.6440000
 142.8636870  76.4310422  95.5760128 143.4698325  75.5304892  96.5002661
 139.9390000  76.5030000  96.9420000 140.8671500  76.9810745  94.9369185
 141.0384998  75.2698257  95.4309032 143.1797786  77.4439699  95.8470657
 143.2318866  76.1980970  94.5734997 143.0352520  75.7153657  97.3558065
 142.8410000  73.8360000 102.3850000 140.7870000  74.9830000 101.2690000
 140.8979214  76.2161885 102.1639740 140.0228707  73.8978749 102.0137234
 145.4028790  73.3055784  99.7327728 144.8362276  73.4250000 101.1580000
 143.4190000  73.4250000 101.1580000 143.5400000  72.4530000 101.1890000
 143.0151057  72.8761082 101.8852381 142.6213487  73.6854789 103.4437628
 141.9324599  76.5813217 102.1207677 140.6403039  75.9275211 103.1880313
 140.2404407  76.9991457 101.7882770 140.4299448  72.9240218 101.7207150
 138.9675256  73.9522270 101.7390774 140.1525857  74.0585068 103.0876063
 145.0119904  74.1184292  99.1099391 146.4961579  73.3623141  99.7547570
 145.1853253  74.3547113 101.6163684 145.1817374  72.6044533 101.7955830
 143.1146078  74.3565210 101.1580000 144.3900000  71.0000000 101.3300000
 140.9090000  76.6200000 110.1270000 141.3470000  76.2980000 108.8090000
 142.8636870  76.4310422 108.7410128 143.4698325  75.5304892 109.6652661
 139.9390000  76.5030000 110.1070000 140.8671500  76.9810745 108.1019185
 141.0384998  75.2698257 108.5959032 143.1797786  77.4439699 109.0120657
 143.2318866  76.1980970 107.7384997 143.0352520  75.7153657 110.5208065
 142.8410000  73.8360000 115.5510000 140.7870000  74.9830000 114.4350000
 140.8979214  76.2161885 115.3299740 140.0228707  73.8978749 115.1797234
 145.4028790  73.3055784 112.8987728 144.8362276  73.4250000 114.3240000
 143.4190000  73.4250000 114.3240000 143.5400000  72.4530000 114.3550000
 143.0151057  72.8761082 115.0512381 142.6213487  73.6854789 116.6097628
 141.9324599  76.5813217 115.2867677 140.6403039  75.9275211 116.3540313
 140.2404407  76.9991457 114.9542770 140.4299448  72.9240218 114.8867150
 138.9675256  73.9522270 114.9050774 140.1525857  74.0585068 116.2536063
 145.0119904  74.1184292 112.2759391 146.4961579  73.3623141 112.9207570
 145.1853253  74.3547113 114.7823684 145.1817374  72.6044533 114.9615830
 143.1146078  74.3565210 114.3240000 144.3900000  71.0000000 114.4960000
 140.9090000  76.6200000 123.2930000 141.3470000  76.2980000 121.9750000
 142.8636870  76.4310422 121.9070128 143.4698325  75.5304892 122.8312661
 139.9390000  76.5030000 123.2730000 140.8671500  76.9810745 121.2679185
 141.0384998  75.2698257 121.7619032 143.1797786  77.4439699 122.1780657
 143.2318866  76.1980970 120.9044997 143.0352520  75.7153657 123.6868065
 142.8410000  73.8360000 128.7160000 140.7870000  74.9830000 127.6000000
 140.8979214  76.2161885 128.4949740 140.0228707  73.8978749 128.3447234
 145.4028790  73.3055784 126.0637728 144.8362276  73.4250000 127.4890000
 143.4190000  73.4250000 127.4890000 143.5400000  72.4530000 127.5200000
 143.0151057  72.8761082 128.2162381 142.6213487  73.6854789 129.7747628
 141.9324599  76.5813217 128.4517677 140.6403039  75.9275211 129.5190313
 140.2404407  76.9991457 128.1192770 140.4299448  72.9240218 128.0517150
 138.9675256  73.9522270 128.0700774 140.1525857  74.0585068 129.4186063
 145.0119904  74.1184292 125.4409391 146.4961579  73.3623141 126.0857570
 145.1853253  74.3547113 127.9473684 145.1817374  72.6044533 128.1265830
 143.1146078  74.3565210 127.4890000 144.3900000  71.0000000 127.6610000
 140.9090000  76.6200000 136.4580000 141.3470000  76.2980000 135.1400000
 142.8636870  76.4310422 135.0720128 143.4698325  75.5304892 135.9962661
 139.9390000  76.5030000 136.4380000 140.8671500  76.9810745 134.4329185
 141.0384998  75.2698257 134.9269032 143.1797786  77.4439699 135.3430657
 143.2318866  76.1980970 134.0694997 143.0352520  75.7153657 136.8518065
 142.8410000  73.8360000 141.8810000 140.7870000  74.9830000 140.7650000
 140.8979214  76.2161885 141.6599740 140.0228707  73.8978749 141.5097234
 145.4028790  73.3055784 139.2287728 144.8362276  73.4250000 140.6540000
 143.4190000  73.4250000 140.6540000 143.5400000  72.4530000 140.6850000
 143.0151057  72.8761082 141.3812381 142.6213487  73.6854789 142.9397628
 141.9324599  76.5813217 141.6167677 140.6403039  75.9275211 142.6840313
 140.2404407  76.9991457 141.2842770 140.4299448  72.9240218 141.2167150
 138.9675256  73.9522270 141.2350774 140.1525857  74.0585068 142.5836063
 145.0119904  74.1184292 138.6059391 146.4961579  73.3623141 139.2507570
 145.1853253  74.3547113 141.1123684 145.1817374  72.6044533 141.2915830
 143.1146078  74.3565210 140.6540000 144.3900000  71.0000000 140.8260000
 140.9090000  76.6200000 149.6230000 141.3470000  76.2980000 148.3050000
 142.8636870  76.4310422 148.2370128 143.4698325  75.5304892 149.1612661
 139.9390000  76.5030000 149.6030000 140.8671500  76.9810745 147.5979185
 141.0384998  75.2698257 148.0919032 143.1797786  77.4439699 148.5080657
 143.2318866  76.1980970 147.2344997 143.0352520  75.7153657 150.0168065
 142.8410000  73.8360000 155.0460000 140.7870000  74.9830000 153.9300000
 140.8979214  76.2161885 154.8249740 140.0228707  73.8978749 154.6747234
 145.4028790  73.3055784 152.3937728 144.8362276  73.4250000 153.8190000
 143.4190000  73.4250000 153.8190000 143.5400000  72.4530000 153.8500000
 143.0151057  72.8761082 154.5462381 142.6213487  73.6854789 156.1047628
 141.9324599  76.5813217 154.7817677 140.6403039  75.9275211 155.8490313
 140.2404407  76.9991457 154.4492770 140.4299448  72.9240218 154.3817150
 138.9675256  73.9522270 154.4000774 140.1525857  74.0585068 155.7486063
 145.0119904  74.1184292 151.7709391 146.4961579  73.3623141 152.4157570
 145.1853253  74.3547113 154.2773684 145.1817374  72.6044533 154.4565830
 143.1146078  74.3565210 153.8190000 144.3900000  71.0000000 153.9910000
 140.9090000  76.6200000 162.7880000 141.3470000  76.2980000 161.4700000
 142.8636870  76.4310422 161.4020128 143.4698325  75.5304892 162.3262661
 139.9390000  76.5030000 162.7680000 140.8671500  76.9810745 160.7629185
 141.0384998  75.2698257 161.2569032 143.1797786  77.4439699 161.6730657
 143.2318866  76.1980970 160.3994997 143.0352520  75.7153657 163.1818065
 142.8410000  73.8360000 168.2110000 140.7870000  74.9830000 167.0950000
 140.8979214  76.2161885 167.9899740 140.0228707  73.8978749 167.8397234
 145.4028790  73.3055784 165.5587728 144.8362276  73.4250000 166.9840000
 143.4190000  73.4250000 166.9840000 143.5400000  72.4530000 167.0150000
 143.0151057  72.8761082 167.7112381 142.6213487  73.6854789 169.2697628
 141.9324599  76.5813217 167.9467677 140.6403039  75.9275211 169.0140313
 140.2404407  76.9991457 167.6142770 140.4299448  72.9240218 167.5467150
 138.9675256  73.9522270 167.5650774 140.1525857  74.0585068 168.9136063
 145.0119904  74.1184292 164.9359391 146.4961579  73.3623141 165.5807570
 145.1853253  74.3547113 167.4423684 145.1817374  72.6044533 167.6215830
 143.1146078  74.3565210 166.9840000 144.3900000  71.0000000 167.1560000
 140.9090000  76.6200000 175.9530000 141.3470000  76.2980000 174.6350000
 142.8636870  76.4310422 174.5670128 143.4698325  75.5304892 175.4912661
 139.9390000  76.5030000 175.9330000 140.8671500  76.9810745 173.9279185
 141.0384998  75.2698257 174.4219032 143.1797786  77.4439699 174.8380657
 143.2318866  76.1980970 173.5644997 143.0352520  75.7153657 176.3468065
 142.8410000  73.8360000 181.3770000 140.7870000  74.9830000 180.2610000
 140.8979214  76.2161885 181.1559740 140.0228707  73.8978749 181.0057234
 145.4028790  73.3055784 178.7247728 144.8362276  73.4250000 180.1500000
 143.4190000  73.4250000 180.1500000 143.5400000  72.4530000 180.1810000
 143.0151057  72.8761082 180.8772381 142.6213487  73.6854789 182.4357628
 141.9324599  76.5813217 181.1127677 140.6403039  75.9275211 182.1800313
 140.2404407  76.9991457 180.7802770 140.4299448  72.9240218 180.7127150
 138.9675256  73.9522270 180.7310774 140.1525857  74.0585068 182.0796063
 145.0119904  74.1184292 178.1019391 146.4961579  73.3623141 178.7467570
 145.1853253  74.3547113 180.6083684 145.1817374  72.6044533 180.7875830
 143.1146078  74.3565210 180.1500000 144.3900000  71.0000000 180.3220000
 140.9090000  76.6200000 189.1190000 141.3470000  76.2980000 187.8010000
 142.8636870  76.4310422 187.7330128 143.4698325  75.5304892 188.6572661
 139.9390000  76.5030000 189.0990000 140.8671500  76.9810745 187.0939185
 141.0384998  75.2698257 187.5879032 143.1797786  77.4439699 188.0040657
 143.2318866  76.1980970 186.7304997 143.0352520  75.7153657 189.5128065
 142.8410000  73.8360000 194.5420000 140.7870000  74.9830000 193.4260000
 140.8979214  76.2161885 194.3209740 140.0228707  73.8978749 194.1707234
 145.4028790  73.3055784 191.8897728 144.8362276  73.4250000 193.3150000
 143.4190000  73.4250000 193.3150000 143.5400000  72.4530000 193.3460000
 143.0151057  72.8761082 194.0422381 142.6213487  73.6854789 195.6007628
 141.9324599  76.5813217 194.2777677 140.6403039  75.9275211 195.3450313
 140.2404407  76.9991457 193.9452770 140.4299448  72.9240218 193.8777150
 138.9675256  73.9522270 193.8960774 140.1525857  74.0585068 195.2446063
 145.0119904  74.1184292 191.2669391 146.4961579  73.3623141 191.9117570
 145.1853253  74.3547113 193.7733684 145.1817374  72.6044533 193.9525830
 143.1146078  74.3565210 193.3150000 144.3900000  71.0000000 193.4870000
 140.9090000  76.6200000 202.2840000 141.3470000  76.2980000 200.9660000
 142.8636870  76.4310422 200.8980128 143.4698325  75.5304892 201.8222661
 139.9390000  76.5030000 202.2640000 140.8671500  76.9810745 200.2589185
 141.0384998  75.2698257 200.7529032 143.1797786  77.4439699 201.1690657
 143.2318866  76.1980970 199.8954997 143.0352520  75.7153657 202.6778065
 142.8410000  81.1520000  76.0550000 140.7870000  82.2990000  74.9390000
 140.8979214  83.5321885  75.8339740 140.0228707  81.2138749  75.6837234
 145.4028790  80.6215784  73.4027728 144.8362276  80.7410000  74.8280000
 143.4190000  80.7410000  74.8280000 143.5400000  79.7690000  74.8590000
 143.0151057  80.1921082  75.5552381 142.6213487  81.0014789  77.1137628
 141.9324599  83.8973217  75.7907677 140.6403039  83.2435211  76.8580313
 140.2404407  84.3151457  75.4582770 140.4299448  80.2400218  75.3907150
 138.9675256  81.2682270  75.4090774 140.1525857  81.3745068  76.7576063
 145.0119904  81.4344292  72.7799391 146.4961579  80.6783141  73.4247570
 145.1853253  81.6707113  75.2863684 145.1817374  79.9204533  75.4655830
 143.1146078  81.6725210  74.8280000 144.3900000  78.3160000  75.0000000
 140.9090000  83.9360000  83.7970000 141.3470000  83.6140000  82.4790000
 142.8636870  83.7470422  82.4110128 143.4698325  82.8464892  83.3352661
 139.9390000  83.8190000  83.7770000 140.8671500  84.2970745  81.7719185
 141.0384998  82.5858257  82.2659032 143.1797786  84.7599699  82.6820657
 143.2318866  83.5140970  81.4084997 143.0352520  83.0313657  84.1908065
 142.8410000  81.1520000  89.2200000 140.7870000  82.2990000  88.1040000
 140.8979214  83.5321885  88.9989740 140.0228707  81.2138749  88.8487234
 145.4028790  80.6215784  86.5677728 144.8362276  80.7410000  87.9930000
 143.4190000  80.7410000  87.9930000 143.5400000  79.7690000  88.0240000
 143.0151057  80.1921082  88.7202381 142.6213487  81.0014789  90.2787628
 141.9324599  83.8973217  88.9557677 140.6403039  83.2435211  90.0230313
 140.2404407  84.3151457  88.6232770 140.4299448  80.2400218  88.5557150
 138.9675256  81.2682270  88.5740774 140.1525857  81.3745068  89.9226063
 145.0119904  81.4344292  85.9449391 146.4961579  80.6783141  86.5897570
 145.1853253  81.6707113  88.4513684 145.1817374  79.9204533  88.6305830
 143.1146078  81.6725210  87.9930000 144.3900000  78.3160000  88.1650000
 140.9090000  83.9360000  96.9620000 141.3470000  83.6140000  95.6440000
 142.8636870  83.7470422  95.5760128 143.4698325  82.8464892  96.5002661
 139.9390000  83.8190000  96.9420000 140.8671500  84.2970745  94.9369185
 141.0384998  82.5858257  95.4309032 143.1797786  84.7599699  95.8470657
 143.2318866  83.5140970  94.5734997 143.0352520  83.0313657  97.3558065
 142.8410000  81.1520000 102.3850000 140.7870000  82.2990000 101.2690000
 140.8979214  83.5321885 102.1639740 140.0228707  81.2138749 102.0137234
 145.4028790  80.6215784  99.7327728 144.8362276  80.7410000 101.1580000
 143.4190000  80.7410000 101.1580000 143.5400000  79.7690000 101.1890000
 143.0151057  80.1921082 101.8852381 142.6213487  81.0014789 103.4437628
 141.9324599  83.8973217 102.1207677 140.6403039  83.2435211 103.1880313
 140.2404407  84.3151457 101.7882770 140.4299448  80.2400218 101.7207150
 138.9675256  81.2682270 101.7390774 140.1525857  81.3745068 103.0876063
 145.0119904  81.4344292  99.1099391 146.4961579  80.6783141  99.7547570
 145.1853253  81.6707113 101.6163684 145.1817374  79.9204533 101.7955830
 143.1146078  81.6725210 101.1580000 144.3900000  78.3160000 101.3300000
 140.9090000  83.9360000 110.1270000 141.3470000  83.6140000 108.8090000
 142.8636870  83.7470422 108.7410128 143.4698325  82.8464892 109.6652661
 139.9390000  83.8190000 110.1070000 140.8671500  84.2970745 108.1019185
 141.0384998  82.5858257 108.5959032 143.1797786  84.7599699 109.0120657
 143.2318866  83.5140970 107.7384997 143.0352520  83.0313657 110.5208065
 142.8410000  81.1520000 115.5510000 140.7870000  82.2990000 114.4350000
 140.8979214  83.5321885 115.3299740 140.0228707  81.2138749 115.1797234
 145.4028790  80.6215784 112.8987728 144.8362276  80.7410000 114.3240000
 143.4190000  80.7410000 114.3240000 143.5400000  79.7690000 114.3550000
 143.0151057  80.1921082 115.0512381 142.6213487  81.0014789 116.6097628
 141.9324599  83.8973217 115.2867677 140.6403039  83.2435211 116.3540313
 140.2404407  84.3151457 114.9542770 140.4299448  80.2400218 114.8867150
 138.9675256  81.2682270 114.9050774 140.1525857  81.3745068 116.2536063
 145.0119904  81.4344292 112.2759391 146.4961579  80.6783141 112.9207570
 145.1853253  81.6707113 114.7823684 145.1817374  79.9204533 114.9615830
 143.1146078  81.6725210 114.3240000 144.3900000  78.3160000 114.4960000
 140.9090000  83.9360000 123.2930000 141.3470000  83.6140000 121.9750000
 142.8636870  83.7470422 121.9070128 143.4698325  82.8464892 122.8312661
 139.9390000  83.8190000 123.2730000 140.8671500  84.2970745 121.2679185
 141.0384998  82.5858257 121.7619032 143.1797786  84.7599699 122.1780657
 143.2318866  83.5140970 120.9044997 143.0352520  83.0313657 123.6868065
 142.8410000  81.1520000 128.7160000 140.7870000  82.2990000 127.6000000
 140.8979214  83.5321885 128.4949740 140.0228707  81.2138749 128.3447234
 145.4028790  80.6215784 126.0637728 144.8362276  80.7410000 127.4890000
 143.4190000  80.7410000 127.4890000 143.5400000  79.7690000 127.5200000
 143.0151057  80.1921082 128.2162381 142.6213487  81.0014789 129.7747628
 141.9324599  83.8973217 128.4517677 140.6403039  83.2435211 129.5190313
 140.2404407  84.3151457 128.1192770 140.4299448  80.2400218 128.0517150
 138.9675256  81.2682270 128.0700774 140.1525857  81.3745068 129.4186063
 145.0119904  81.4344292 125.4409391 146.4961579  80.6783141 126.0857570
 145.1853253  81.6707113 127.9473684 145.1817374  79.9204533 128.1265830
 143.1146078  81.6725210 127.4890000 144.3900000  78.3160000 127.6610000
 140.9090000  83.9360000 136.4580000 141.3470000  83.6140000 135.1400000
 142.8636870  83.7470422 135.0720128 143.4698325  82.8464892 135.9962661
 139.9390000  83.8190000 136.4380000 140.8671500  84.2970745 134.4329185
 141.0384998  82.5858257 134.9269032 143.1797786  84.7599699 135.3430657
 143.2318866  83.5140970 134.0694997 143.0352520  83.0313657 136.8518065
 142.8410000  81.1520000 141.8810000 140.7870000  82.2990000 140.7650000
 140.8979214  83.5321885 141.6599740 140.0228707  81.2138749 141.5097234
 145.4028790  80.6215784 139.2287728 144.8362276  80.7410000 140.6540000
 143.4190000  80.7410000 140.6540000 143.5400000  79.7690000 140.6850000
 143.0151057  80.1921082 141.3812381 142.6213487  81.0014789 142.9397628
 141.9324599  83.8973217 141.6167677 140.6403039  83.2435211 142.6840313
 140.2404407  84.3151457 141.2842770 140.4299448  80.2400218 141.2167150
 138.9675256  81.2682270 141.2350774 140.1525857  81.3745068 142.5836063
 145.0119904  81.4344292 138.6059391 146.4961579  80.6783141 139.2507570
 145.1853253  81.6707113 141.1123684 145.1817374  79.9204533 141.2915830
 143.1146078  81.6725210 140.6540000 144.3900000  78.3160000 140.8260000
 140.9090000  83.9360000 149.6230000 141.3470000  83.6140000 148.3050000
 142.8636870  83.7470422 148.2370128 143.4698325  82.8464892 149.1612661
 139.9390000  83.8190000 149.6030000 140.8671500  84.2970745 147.5979185
 141.0384998  82.5858257 148.0919032 143.1797786  84.7599699 148.5080657
 143.2318866  83.5140970 147.2344997 143.0352520  83.0313657 150.0168065
 142.8410000  81.1520000 155.0460000 140.7870000  82.2990000 153.9300000
 140.8979214  83.5321885 154.8249740 140.0228707  81.2138749 154.6747234
 145.4028790  80.6215784 152.3937728 144.8362276  80.7410000 153.8190000
 143.4190000  80.7410000 153.8190000 143.5400000  79.7690000 153.8500000
 143.0151057  80.1921082 154.5462381 142.6213487  81.0014789 156.1047628
 141.9324599  83.8973217 154.7817677 140.6403039  83.2435211 155.8490313
 140.2404407  84.3151457 154.4492770 140.4299448  80.2400218 154.3817150
 138.9675256  81.2682270 154.4000774 140.1525857  81.3745068 155.7486063
 145.0119904  81.4344292 151.7709391 146.4961579  80.6783141 152.4157570
 145.1853253  81.6707113 154.2773684 145.1817374  79.9204533 154.4565830
 143.1146078  81.6725210 153.8190000 144.3900000  78.3160000 153.9910000
 140.9090000  83.9360000 162.7880000 141.3470000  83.6140000 161.4700000
 142.8636870  83.7470422 161.4020128 143.4698325  82.8464892 162.3262661
 139.9390000  83.8190000 162.7680000 140.8671500  84.2970745 160.7629185
 141.0384998  82.5858257 161.2569032 143.1797786  84.7599699 161.6730657
 143.2318866  83.5140970 160.3994997 143.0352520  83.0313657 163.1818065
 142.8410000  81.1520000 168.2110000 140.7870000  82.2990000 167.0950000
 140.8979214  83.5321885 167.9899740 140.0228707  81.2138749 167.8397234
 145.4028790  80.6215784 165.5587728 144.8362276  80.7410000 166.9840000
 143.4190000  80.7410000 166.9840000 143.5400000  79.7690000 167.0150000
 143.0151057  80.1921082 167.7112381 142.6213487  81.0014789 169.2697628
 141.9324599  83.8973217 167.9467677 140.6403039  83.2435211 169.0140313
 140.2404407  84.3151457 167.6142770 140.4299448  80.2400218 167.5467150
 138.9675256  81.2682270 167.5650774 140.1525857  81.3745068 168.9136063
 145.0119904  81.4344292 164.9359391 146.4961579  80.6783141 165.5807570
 145.1853253  81.6707113 167.4423684 145.1817374  79.9204533 167.6215830
 143.1146078  81.6725210 166.9840000 144.3900000  78.3160000 167.1560000
 140.9090000  83.9360000 175.9530000 141.3470000  83.6140000 174.6350000
 142.8636870  83.7470422 174.5670128 143.4698325  82.8464892 175.4912661
 139.9390000  83.8190000 175.9330000 140.8671500  84.2970745 173.9279185
 141.0384998  82.5858257 174.4219032 143.1797786  84.7599699 174.8380657
 143.2318866  83.5140970 173.5644997 143.0352520  83.0313657 176.3468065
 142.8410000  81.1520000 181.3770000 140.7870000  82.2990000 180.2610000
 140.8979214  83.5321885 181.1559740 140.0228707  81.2138749 181.0057234
 145.4028790  80.6215784 178.7247728 144.8362276  80.7410000 180.1500000
 143.4190000  80.7410000 180.1500000 143.5400000  79.7690000 180.1810000
 143.0151057  80.1921082 180.8772381 142.6213487  81.0014789 182.4357628
 141.9324599  83.8973217 181.1127677 140.6403039  83.2435211 182.1800313
 140.2404407  84.3151457 180.7802770 140.4299448  80.2400218 180.7127150
 138.9675256  81.2682270 180.7310774 140.1525857  81.3745068 182.0796063
 145.0119904  81.4344292 178.1019391 146.4961579  80.6783141 178.7467570
 145.1853253  81.6707113 180.6083684 145.1817374  79.9204533 180.7875830
 143.1146078  81.6725210 180.1500000 144.3900000  78.3160000 180.3220000
 140.9090000  83.9360000 189.1190000 141.3470000  83.6140000 187.8010000
 142.8636870  83.7470422 187.7330128 143.4698325  82.8464892 188.6572661
 139.9390000  83.8190000 189.0990000 140.8671500  84.2970745 187.0939185
 141.0384998  82.5858257 187.5879032 143.1797786  84.7599699 188.0040657
 143.2318866  83.5140970 186.7304997 143.0352520  83.0313657 189.5128065
 142.8410000  81.1520000 194.5420000 140.7870000  82.2990000 193.4260000
 140.8979214  83.5321885 194.3209740 140.0228707  81.2138749 194.1707234
 145.4028790  80.6215784 191.8897728 144.8362276  80.7410000 193.3150000
 143.4190000  80.7410000 193.3150000 143.5400000  79.7690000 193.3460000
 143.0151057  80.1921082 194.0422381 142.6213487  81.0014789 195.6007628
 141.9324599  83.8973217 194.2777677 140.6403039  83.2435211 195.3450313
 140.2404407  84.3151457 193.9452770 140.4299448  80.2400218 193.8777150
 138.9675256  81.2682270 193.8960774 140.1525857  81.3745068 195.2446063
 145.0119904  81.4344292 191.2669391 146.4961579  80.6783141 191.9117570
 145.1853253  81.6707113 193.7733684 145.1817374  79.9204533 193.9525830
 143.1146078  81.6725210 193.3150000 144.3900000  78.3160000 193.4870000
 140.9090000  83.9360000 202.2840000 141.3470000  83.6140000 200.9660000
 142.8636870  83.7470422 200.8980128 143.4698325  82.8464892 201.8222661
 139.9390000  83.8190000 202.2640000 140.8671500  84.2970745 200.2589185
 141.0384998  82.5858257 200.7529032 143.1797786  84.7599699 201.1690657
 143.2318866  83.5140970 199.8954997 143.0352520  83.0313657 202.6778065
 142.8410000  88.4690000  76.0550000 140.7870000  89.6160000  74.9390000
 140.8979214  90.8491885  75.8339740 140.0228707  88.5308749  75.6837234
 145.4028790  87.9385784  73.4027728 144.8362276  88.0580000  74.8280000
 143.4190000  88.0580000  74.8280000 143.5400000  87.0860000  74.8590000
 143.0151057  87.5091082  75.5552381 142.6213487  88.3184789  77.1137628
 141.9324599  91.2143217  75.7907677 140.6403039  90.5605211  76.8580313
 140.2404407  91.6321457  75.4582770 140.4299448  87.5570218  75.3907150
 138.9675256  88.5852270  75.4090774 140.1525857  88.6915068  76.7576063
 145.0119904  88.7514292  72.7799391 146.4961579  87.9953141  73.4247570
 145.1853253  88.9877113  75.2863684 145.1817374  87.2374533  75.4655830
 143.1146078  88.9895210  74.8280000 144.3900000  85.6330000  75.0000000
 140.9090000  91.2530000  83.7970000 141.3470000  90.9310000  82.4790000
 142.8636870  91.0640422  82.4110128 143.4698325  90.1634892  83.3352661
 139.9390000  91.1360000  83.7770000 140.8671500  91.6140745  81.7719185
 141.0384998  89.9028257  82.2659032 143.1797786  92.0769699  82.6820657
 143.2318866  90.8310970  81.4084997 143.0352520  90.3483657  84.1908065
 142.8410000  88.4690000  89.2200000 140.7870000  89.6160000  88.1040000
 140.8979214  90.8491885  88.9989740 140.0228707  88.5308749  88.8487234
 145.4028790  87.9385784  86.5677728 144.8362276  88.0580000  87.9930000
 143.4190000  88.0580000  87.9930000 143.5400000  87.0860000  88.0240000
 143.0151057  87.5091082  88.7202381 142.6213487  88.3184789  90.2787628
 141.9324599  91.2143217  88.9557677 140.6403039  90.5605211  90.0230313
 140.2404407  91.6321457  88.6232770 140.4299448  87.5570218  88.5557150
 138.9675256  88.5852270  88.5740774 140.1525857  88.6915068  89.9226063
 145.0119904  88.7514292  85.9449391 146.4961579  87.9953141  86.5897570
 145.1853253  88.9877113  88.4513684 145.1817374  87.2374533  88.6305830
 143.1146078  88.9895210  87.9930000 144.3900000  85.6330000  88.1650000
 140.9090000  91.2530000  96.9620000 141.3470000  90.9310000  95.6440000
 142.8636870  91.0640422  95.5760128 143.4698325  90.1634892  96.5002661
 139.9390000  91.1360000  96.9420000 140.8671500  91.6140745  94.9369185
 141.0384998  89.9028257  95.4309032 143.1797786  92.0769699  95.8470657
 143.2318866  90.8310970  94.5734997 143.0352520  90.3483657  97.3558065
 142.8410000  88.4690000 102.3850000 140.7870000  89.6160000 101.2690000
 140.8979214  90.8491885 102.1639740 140.0228707  88.5308749 102.0137234
 145.4028790  87.9385784  99.7327728 144.8362276  88.0580000 101.1580000
 143.4190000  88.0580000 101.1580000 143.5400000  87.0860000 101.1890000
 143.0151057  87.5091082 101.8852381 142.6213487  88.3184789 103.4437628
 141.9324599  91.2143217 102.1207677 140.6403039  90.5605211 103.1880313
 140.2404407  91.6321457 101.7882770 140.4299448  87.5570218 101.7207150
 138.9675256  88.5852270 101.7390774 140.1525857  88.6915068 103.0876063
 145.0119904  88.7514292  99.1099391 146.4961579  87.9953141  99.7547570
 145.1853253  88.9877113 101.6163684 145.1817374  87.2374533 101.7955830
 143.1146078  88.9895210 101.1580000 144.3900000  85.6330000 101.3300000
 140.9090000  91.2530000 110.1270000 141.3470000  90.9310000 108.8090000
 142.8636870  91.0640422 108.7410128 143.4698325  90.1634892 109.6652661
 139.9390000  91.1360000 110.1070000 140.8671500  91.6140745 108.1019185
 141.0384998  89.9028257 108.5959032 143.1797786  92.0769699 109.0120657
 143.2318866  90.8310970 107.7384997 143.0352520  90.3483657 110.5208065
 142.8410000  88.4690000 115.5510000 140.7870000  89.6160000 114.4350000
 140.8979214  90.8491885 115.3299740 140.0228707  88.5308749 115.1797234
 145.4028790  87.9385784 112.8987728 144.8362276  88.0580000 114.3240000
 143.4190000  88.0580000 114.3240000 143.5400000  87.0860000 114.3550000
 143.0151057  87.5091082 115.0512381 142.6213487  88.3184789 116.6097628
 141.9324599  91.2143217 115.2867677 140.6403039  90.5605211 116.3540313
 140.2404407  91.6321457 114.9542770 140.4299448  87.5570218 114.8867150
 138.9675256  88.5852270 114.9050774 140.1525857  88.6915068 116.2536063
 145.0119904  88.7514292 112.2759391 146.4961579  87.9953141 112.9207570
 145.1853253  88.9877113 114.7823684 145.1817374  87.2374533 114.9615830
 143.1146078  88.9895210 114.3240000 144.3900000  85.6330000 114.4960000
 140.9090000  91.2530000 123.2930000 141.3470000  90.9310000 121.9750000
 142.8636870  91.0640422 121.9070128 143.4698325  90.1634892 122.8312661
 139.9390000  91.1360000 123.2730000 140.8671500  91.6140745 121.2679185
 141.0384998  89.9028257 121.7619032 143.1797786  92.0769699 122.1780657
 143.2318866  90.8310970 120.9044997 143.0352520  90.3483657 123.6868065
 142.8410000  88.4690000 128.7160000 140.7870000  89.6160000 127.6000000
 140.8979214  90.8491885 128.4949740 140.0228707  88.5308749 128.3447234
 145.4028790  87.9385784 126.0637728 144.8362276  88.0580000 127.4890000
 143.4190000  88.0580000 127.4890000 143.5400000  87.0860000 127.5200000
 143.0151057  87.5091082 128.2162381 142.6213487  88.3184789 129.7747628
 141.9324599  91.2143217 128.4517677 140.6403039  90.5605211 129.5190313
 140.2404407  91.6321457 128.1192770 140.4299448  87.5570218 128.0517150
 138.9675256  88.5852270 128.0700774 140.1525857  88.6915068 129.4186063
 145.0119904  88.7514292 125.4409391 146.4961579  87.9953141 126.0857570
 145.1853253  88.9877113 127.9473684 145.1817374  87.2374533 128.1265830
 143.1146078  88.9895210 127.4890000 144.3900000  85.6330000 127.6610000
 140.9090000  91.2530000 136.4580000 141.3470000  90.9310000 135.1400000
 142.8636870  91.0640422 135.0720128 143.4698325  90.1634892 135.9962661
 139.9390000  91.1360000 136.4380000 140.8671500  91.6140745 134.4329185
 141.0384998  89.9028257 134.9269032 143.1797786  92.0769699 135.3430657
 143.2318866  90.8310970 134.0694997 143.0352520  90.3483657 136.8518065
 142.8410000  88.4690000 141.8810000 140.7870000  89.6160000 140.7650000
 140.8979214  90.8491885 141.6599740 140.0228707  88.5308749 141.5097234
 145.4028790  87.9385784 139.2287728 144.8362276  88.0580000 140.6540000
 143.4190000  88.0580000 140.6540000 143.5400000  87.0860000 140.6850000
 143.0151057  87.5091082 141.3812381 142.6213487  88.3184789 142.9397628
 141.9324599  91.2143217 141.6167677 140.6403039  90.5605211 142.6840313
 140.2404407  91.6321457 141.2842770 140.4299448  87.5570218 141.2167150
 138.9675256  88.5852270 141.2350774 140.1525857  88.6915068 142.5836063
 145.0119904  88.7514292 138.6059391 146.4961579  87.9953141 139.2507570
 145.1853253  88.9877113 141.1123684 145.1817374  87.2374533 141.2915830
 143.1146078  88.9895210 140.6540000 144.3900000  85.6330000 140.8260000
 140.9090000  91.2530000 149.6230000 141.3470000  90.9310000 148.3050000
 142.8636870  91.0640422 148.2370128 143.4698325  90.1634892 149.1612661
 139.9390000  91.1360000 149.6030000 140.8671500  91.6140745 147.5979185
 141.0384998  89.9028257 148.0919032 143.1797786  92.0769699 148.5080657
 143.2318866  90.8310970 147.2344997 143.0352520  90.3483657 150.0168065
 142.8410000  88.4690000 155.0460000 140.7870000  89.6160000 153.9300000
 140.8979214  90.8491885 154.8249740 140.0228707  88.5308749 154.6747234
 145.4028790  87.9385784 152.3937728 144.8362276  88.0580000 153.8190000
 143.4190000  88.0580000 153.8190000 143.5400000  87.0860000 153.8500000
 143.0151057  87.5091082 154.5462381 142.6213487  88.3184789 156.1047628
 141.9324599  91.2143217 154.7817677 140.6403039  90.5605211 155.8490313
 140.2404407  91.6321457 154.4492770 140.4299448  87.5570218 154.3817150
 138.9675256  88.5852270 154.4000774 140.1525857  88.6915068 155.7486063
 145.0119904  88.7514292 151.7709391 146.4961579  87.9953141 152.4157570
 145.1853253  88.9877113 154.2773684 145.1817374  87.2374533 154.4565830
 143.1146078  88.9895210 153.8190000 144.3900000  85.6330000 153.9910000
 140.9090000  91.2530000 162.7880000 141.3470000  90.9310000 161.4700000
 142.8636870  91.0640422 161.4020128 143.4698325  90.1634892 162.3262661
 139.9390000  91.1360000 162.7680000 140.8671500  91.6140745 160.7629185
 141.0384998  89.9028257 161.2569032 143.1797786  92.0769699 161.6730657
 143.2318866  90.8310970 160.3994997 143.0352520  90.3483657 163.1818065
 142.8410000  88.4690000 168.2110000 140.7870000  89.6160000 167.0950000
 140.8979214  90.8491885 167.9899740 140.0228707  88.5308749 167.8397234
 145.4028790  87.9385784 165.5587728 144.8362276  88.0580000 166.9840000
 143.4190000  88.0580000 166.9840000 143.5400000  87.0860000 167.0150000
 143.0151057  87.5091082 167.7112381 142.6213487  88.3184789 169.2697628
 141.9324599  91.2143217 167.9467677 140.6403039  90.5605211 169.0140313
 140.2404407  91.6321457 167.6142770 140.4299448  87.5570218 167.5467150
 138.9675256  88.5852270 167.5650774 140.1525857  88.6915068 168.9136063
 145.0119904  88.7514292 164.9359391 146.4961579  87.9953141 165.5807570
 145.1853253  88.9877113 167.4423684 145.1817374  87.2374533 167.6215830
 143.1146078  88.9895210 166.9840000 144.3900000  85.6330000 167.1560000
 140.9090000  91.2530000 175.9530000 141.3470000  90.9310000 174.6350000
 142.8636870  91.0640422 174.5670128 143.4698325  90.1634892 175.4912661
 139.9390000  91.1360000 175.9330000 140.8671500  91.6140745 173.9279185
 141.0384998  89.9028257 174.4219032 143.1797786  92.0769699 174.8380657
 143.2318866  90.8310970 173.5644997 143.0352520  90.3483657 176.3468065
 142.8410000  88.4690000 181.3770000 140.7870000  89.6160000 180.2610000
 140.8979214  90.8491885 181.1559740 140.0228707  88.5308749 181.0057234
 145.4028790  87.9385784 178.7247728 144.8362276  88.0580000 180.1500000
 143.4190000  88.0580000 180.1500000 143.5400000  87.0860000 180.1810000
 143.0151057  87.5091082 180.8772381 142.6213487  88.3184789 182.4357628
 141.9324599  91.2143217 181.1127677 140.6403039  90.5605211 182.1800313
 140.2404407  91.6321457 180.7802770 140.4299448  87.5570218 180.7127150
 138.9675256  88.5852270 180.7310774 140.1525857  88.6915068 182.0796063
 145.0119904  88.7514292 178.1019391 146.4961579  87.9953141 178.7467570
 145.1853253  88.9877113 180.6083684 145.1817374  87.2374533 180.7875830
 143.1146078  88.9895210 180.1500000 144.3900000  85.6330000 180.3220000
 140.9090000  91.2530000 189.1190000 141.3470000  90.9310000 187.8010000
 142.8636870  91.0640422 187.7330128 143.4698325  90.1634892 188.6572661
 139.9390000  91.1360000 189.0990000 140.8671500  91.6140745 187.0939185
 141.0384998  89.9028257 187.5879032 143.1797786  92.0769699 188.0040657
 143.2318866  90.8310970 186.7304997 143.0352520  90.3483657 189.5128065
 142.8410000  88.4690000 194.5420000 140.7870000  89.6160000 193.4260000
 140.8979214  90.8491885 194.3209740 140.0228707  88.5308749 194.1707234
 145.4028790  87.9385784 191.8897728 144.8362276  88.0580000 193.3150000
 143.4190000  88.0580000 193.3150000 143.5400000  87.0860000 193.3460000
 143.0151057  87.5091082 194.0422381 142.6213487  88.3184789 195.6007628
 141.9324599  91.2143217 194.2777677 140.6403039  90.5605211 195.3450313
 140.2404407  91.6321457 193.9452770 140.4299448  87.5570218 193.8777150
 138.9675256  88.5852270 193.8960774 140.1525857  88.6915068 195.2446063
 145.0119904  88.7514292 191.2669391 146.4961579  87.9953141 191.9117570
 145.1853253  88.9877113 193.7733684 145.1817374  87.2374533 193.9525830
 143.1146078  88.9895210 193.3150000 144.3900000  85.6330000 193.4870000
 140.9090000  91.2530000 202.2840000 141.3470000  90.9310000 200.9660000
 142.8636870  91.0640422 200.8980128 143.4698325  90.1634892 201.8222661
 139.9390000  91.1360000 202.2640000 140.8671500  91.6140745 200.2589185
 141.0384998  89.9028257 200.7529032 143.1797786  92.0769699 201.1690657
 143.2318866  90.8310970 199.8954997 143.0352520  90.3483657 202.6778065
 142.8410000  95.7850000  76.0550000 140.7870000  96.9320000  74.9390000
 140.8979214  98.1651885  75.8339740 140.0228707  95.8468749  75.6837234
 145.4028790  95.2545784  73.4027728 144.8362276  95.3740000  74.8280000
 143.4190000  95.3740000  74.8280000 143.5400000  94.4020000  74.8590000
 143.0151057  94.8251082  75.5552381 142.6213487  95.6344789  77.1137628
 141.9324599  98.5303217  75.7907677 140.6403039  97.8765211  76.8580313
 140.2404407  98.9481457  75.4582770 140.4299448  94.8730218  75.3907150
 138.9675256  95.9012270  75.4090774 140.1525857  96.0075068  76.7576063
 145.0119904  96.0674292  72.7799391 146.4961579  95.3113141  73.4247570
 145.1853253  96.3037113  75.2863684 145.1817374  94.5534533  75.4655830
 143.1146078  96.3055210  74.8280000 144.3900000  92.9490000  75.0000000
 140.9090000  98.5690000  83.7970000 141.3470000  98.2470000  82.4790000
 142.8636870  98.3800422  82.4110128 143.4698325  97.4794892  83.3352661
 139.9390000  98.4520000  83.7770000 140.8671500  98.9300745  81.7719185
 141.0384998  97.2188257  82.2659032 143.1797786  99.3929699  82.6820657
 143.2318866  98.1470970  81.4084997 143.0352520  97.6643657  84.1908065
 142.8410000  95.7850000  89.2200000 140.7870000  96.9320000  88.1040000
 140.8979214  98.1651885  88.9989740 140.0228707  95.8468749  88.8487234
 145.4028790  95.2545784  86.5677728 144.8362276  95.3740000  87.9930000
 143.4190000  95.3740000  87.9930000 143.5400000  94.4020000  88.0240000
 143.0151057  94.8251082  88.7202381 142.6213487  95.6344789  90.2787628
 141.9324599  98.5303217  88.9557677 140.6403039  97.8765211  90.0230313
 140.2404407  98.9481457  88.6232770 140.4299448  94.8730218  88.5557150
 138.9675256  95.9012270  88.5740774 140.1525857  96.0075068  89.9226063
 145.0119904  96.0674292  85.9449391 146.4961579  95.3113141  86.5897570
 145.1853253  96.3037113  88.4513684 145.1817374  94.5534533  88.6305830
 143.1146078  96.3055210  87.9930000 144.3900000  92.9490000  88.1650000
 140.9090000  98.5690000  96.9620000 141.3470000  98.2470000  95.6440000
 142.8636870  98.3800422  95.5760128 143.4698325  97.4794892  96.5002661
 139.9390000  98.4520000  96.9420000 140.8671500  98.9300745  94.9369185
 141.0384998  97.2188257  95.4309032 143.1797786  99.3929699  95.8470657
 143.2318866  98.1470970  94.5734997 143.0352520  97.6643657  97.3558065
 142.8410000  95.7850000 102.3850000 140.7870000  96.9320000 101.2690000
 140.8979214  98.1651885 102.1639740 140.0228707  95.8468749 102.0137234
 145.4028790  95.2545784  99.7327728 144.8362276  95.3740000 101.1580000
 143.4190000  95.3740000 101.1580000 143.5400000  94.4020000 101.1890000
 143.0151057  94.8251082 101.8852381 142.6213487  95.6344789 103.4437628
 141.9324599  98.5303217 102.1207677 140.6403039  97.8765211 103.1880313
 140.2404407  98.9481457 101.7882770 140.4299448  94.8730218 101.7207150
 138.9675256  95.9012270 101.7390774 140.1525857  96.0075068 103.0876063
 145.0119904  96.0674292  99.1099391 146.4961579  95.3113141  99.7547570
 145.1853253  96.3037113 101.6163684 145.1817374  94.5534533 101.7955830
 143.1146078  96.3055210 101.1580000 144.3900000  92.9490000 101.3300000
 140.9090000  98.5690000 110.1270000 141.3470000  98.2470000 108.8090000
 142.8636870  98.3800422 108.7410128 143.4698325  97.4794892 109.6652661
 139.9390000  98.4520000 110.1070000 140.8671500  98.9300745 108.1019185
 141.0384998  97.2188257 108.5959032 143.1797786  99.3929699 109.0120657
 143.2318866  98.1470970 107.7384997 143.0352520  97.6643657 110.5208065
 142.8410000  95.7850000 115.5510000 140.7870000  96.9320000 114.4350000
 140.8979214  98.1651885 115.3299740 140.0228707  95.8468749 115.1797234
 145.4028790  95.2545784 112.8987728 144.8362276  95.3740000 114.3240000
 143.4190000  95.3740000 114.3240000 143.5400000  94.4020000 114.3550000
 143.0151057  94.8251082 115.0512381 142.6213487  95.6344789 116.6097628
 141.9324599  98.5303217 115.2867677 140.6403039  97.8765211 116.3540313
 140.2404407  98.9481457 114.9542770 140.4299448  94.8730218 114.8867150
 138.9675256  95.9012270 114.9050774 140.1525857  96.0075068 116.2536063
 145.0119904  96.0674292 112.2759391 146.4961579  95.3113141 112.9207570
 145.1853253  96.3037113 114.7823684 145.1817374  94.5534533 114.9615830
 143.1146078  96.3055210 114.3240000 144.3900000  92.9490000 114.4960000
 140.9090000  98.5690000 123.2930000 141.3470000  98.2470000 121.9750000
 142.8636870  98.3800422 121.9070128 143.4698325  97.4794892 122.8312661
 139.9390000  98.4520000 123.2730000 140.8671500  98.9300745 121.2679185
 141.0384998  97.2188257 121.7619032 143.1797786  99.3929699 122.1780657
 143.2318866  98.1470970 120.9044997 143.0352520  97.6643657 123.6868065
 142.8410000  95.7850000 128.7160000 140.7870000  96.9320000 127.6000000
 140.8979214  98.1651885 128.4949740 140.0228707  95.8468749 128.3447234
 145.4028790  95.2545784 126.0637728 144.8362276  95.3740000 127.4890000
 143.4190000  95.3740000 127.4890000 143.5400000  94.4020000 127.5200000
 143.0151057  94.8251082 128.2162381 142.6213487  95.6344789 129.7747628
 141.9324599  98.5303217 128.4517677 140.6403039  97.8765211 129.5190313
 140.2404407  98.9481457 128.1192770 140.4299448  94.8730218 128.0517150
 138.9675256  95.9012270 128.0700774 140.1525857  96.0075068 129.4186063
 145.0119904  96.0674292 125.4409391 146.4961579  95.3113141 126.0857570
 145.1853253  96.3037113 127.9473684 145.1817374  94.5534533 128.1265830
 143.1146078  96.3055210 127.4890000 144.3900000  92.9490000 127.6610000
 140.9090000  98.5690000 136.4580000 141.3470000  98.2470000 135.1400000
 142.8636870  98.3800422 135.0720128 143.4698325  97.4794892 135.9962661
 139.9390000  98.4520000 136.4380000 140.8671500  98.9300745 134.4329185
 141.0384998  97.2188257 134.9269032 143.1797786  99.3929699 135.3430657
 143.2318866  98.1470970 134.0694997 143.0352520  97.6643657 136.8518065
 142.8410000  95.7850000 141.8810000 140.7870000  96.9320000 140.7650000
 140.8979214  98.1651885 141.6599740 140.0228707  95.8468749 141.5097234
 145.4028790  95.2545784 139.2287728 144.8362276  95.3740000 140.6540000
 143.4190000  95.3740000 140.6540000 143.5400000  94.4020000 140.6850000
 143.0151057  94.8251082 141.3812381 142.6213487  95.6344789 142.9397628
 141.9324599  98.5303217 141.6167677 140.6403039  97.8765211 142.6840313
 140.2404407  98.9481457 141.2842770 140.4299448  94.8730218 141.2167150
 138.9675256  95.9012270 141.2350774 140.1525857  96.0075068 142.5836063
 145.0119904  96.0674292 138.6059391 146.4961579  95.3113141 139.2507570
 145.1853253  96.3037113 141.1123684 145.1817374  94.5534533 141.2915830
 143.1146078  96.3055210 140.6540000 144.3900000  92.9490000 140.8260000
 140.9090000  98.5690000 149.6230000 141.3470000  98.2470000 148.3050000
 142.8636870  98.3800422 148.2370128 143.4698325  97.4794892 149.1612661
 139.9390000  98.4520000 149.6030000 140.8671500  98.9300745 147.5979185
 141.0384998  97.2188257 148.0919032 143.1797786  99.3929699 148.5080657
 143.2318866  98.1470970 147.2344997 143.0352520  97.6643657 150.0168065
 142.8410000  95.7850000 155.0460000 140.7870000  96.9320000 153.9300000
 140.8979214  98.1651885 154.8249740 140.0228707  95.8468749 154.6747234
 145.4028790  95.2545784 152.3937728 144.8362276  95.3740000 153.8190000
 143.4190000  95.3740000 153.8190000 143.5400000  94.4020000 153.8500000
 143.0151057  94.8251082 154.5462381 142.6213487  95.6344789 156.1047628
 141.9324599  98.5303217 154.7817677 140.6403039  97.8765211 155.8490313
 140.2404407  98.9481457 154.4492770 140.4299448  94.8730218 154.3817150
 138.9675256  95.9012270 154.4000774 140.1525857  96.0075068 155.7486063
 145.0119904  96.0674292 151.7709391 146.4961579  95.3113141 152.4157570
 145.1853253  96.3037113 154.2773684 145.1817374  94.5534533 154.4565830
 143.1146078  96.3055210 153.8190000 144.3900000  92.9490000 153.9910000
 140.9090000  98.5690000 162.7880000 141.3470000  98.2470000 161.4700000
 142.8636870  98.3800422 161.4020128 143.4698325  97.4794892 162.3262661
 139.9390000  98.4520000 162.7680000 140.8671500  98.9300745 160.7629185
 141.0384998  97.2188257 161.2569032 143.1797786  99.3929699 161.6730657
 143.2318866  98.1470970 160.3994997 143.0352520  97.6643657 163.1818065
 142.8410000  95.7850000 168.2110000 140.7870000  96.9320000 167.0950000
 140.8979214  98.1651885 167.9899740 140.0228707  95.8468749 167.8397234
 145.4028790  95.2545784 165.5587728 144.8362276  95.3740000 166.9840000
 143.4190000  95.3740000 166.9840000 143.5400000  94.4020000 167.0150000
 143.0151057  94.8251082 167.7112381 142.6213487  95.6344789 169.2697628
 141.9324599  98.5303217 167.9467677 140.6403039  97.8765211 169.0140313
 140.2404407  98.9481457 167.6142770 140.4299448  94.8730218 167.5467150
 138.9675256  95.9012270 167.5650774 140.1525857  96.0075068 168.9136063
 145.0119904  96.0674292 164.9359391 146.4961579  95.3113141 165.5807570
 145.1853253  96.3037113 167.4423684 145.1817374  94.5534533 167.6215830
 143.1146078  96.3055210 166.9840000 144.3900000  92.9490000 167.1560000
 140.9090000  98.5690000 175.9530000 141.3470000  98.2470000 174.6350000
 142.8636870  98.3800422 174.5670128 143.4698325  97.4794892 175.4912661
 139.9390000  98.4520000 175.9330000 140.8671500  98.9300745 173.9279185
 141.0384998  97.2188257 174.4219032 143.1797786  99.3929699 174.8380657
 143.2318866  98.1470970 173.5644997 143.0352520  97.6643657 176.3468065
 142.8410000  95.7850000 181.3770000 140.7870000  96.9320000 180.2610000
 140.8979214  98.1651885 181.1559740 140.0228707  95.8468749 181.0057234
 145.4028790  95.2545784 178.7247728 144.8362276  95.3740000 180.1500000
 143.4190000  95.3740000 180.1500000 143.5400000  94.4020000 180.1810000
 143.0151057  94.8251082 180.8772381 142.6213487  95.6344789 182.4357628
 141.9324599  98.5303217 181.1127677 140.6403039  97.8765211 182.1800313
 140.2404407  98.9481457 180.7802770 140.4299448  94.8730218 180.7127150
 138.9675256  95.9012270 180.7310774 140.1525857  96.0075068 182.0796063
 145.0119904  96.0674292 178.1019391 146.4961579  95.3113141 178.7467570
 145.1853253  96.3037113 180.6083684 145.1817374  94.5534533 180.7875830
 143.1146078  96.3055210 180.1500000 144.3900000  92.9490000 180.3220000
 140.9090000  98.5690000 189.1190000 141.3470000  98.2470000 187.8010000
 142.8636870  98.3800422 187.7330128 143.4698325  97.4794892 188.6572661
 139.9390000  98.4520000 189.0990000 140.8671500  98.9300745 187.0939185
 141.0384998  97.2188257 187.5879032 143.1797786  99.3929699 188.0040657
 143.2318866  98.1470970 186.7304997 143.0352520  97.6643657 189.5128065
 142.8410000  95.7850000 194.5420000 140.7870000  96.9320000 193.4260000
 140.8979214  98.1651885 194.3209740 140.0228707  95.8468749 194.1707234
 145.4028790  95.2545784 191.8897728 144.8362276  95.3740000 193.3150000
 143.4190000  95.3740000 193.3150000 143.5400000  94.4020000 193.3460000
 143.0151057  94.8251082 194.0422381 142.6213487  95.6344789 195.6007628
 141.9324599  98.5303217 194.2777677 140.6403039  97.8765211 195.3450313
 140.2404407  98.9481457 193.9452770 140.4299448  94.8730218 193.8777150
 138.9675256  95.9012270 193.8960774 140.1525857  96.0075068 195.2446063
 145.0119904  96.0674292 191.2669391 146.4961579  95.3113141 191.9117570
 145.1853253  96.3037113 193.7733684 145.1817374  94.5534533 193.9525830
 143.1146078  96.3055210 193.3150000 144.3900000  92.9490000 193.4870000
 140.9090000  98.5690000 202.2840000 141.3470000  98.2470000 200.9660000
 142.8636870  98.3800422 200.8980128 143.4698325  97.4794892 201.8222661
 139.9390000  98.4520000 202.2640000 140.8671500  98.9300745 200.2589185
 141.0384998  97.2188257 200.7529032 143.1797786  99.3929699 201.1690657
 143.2318866  98.1470970 199.8954997 143.0352520  97.6643657 202.6778065
 142.8410000 103.1020000  76.0550000 140.7870000 104.2490000  74.9390000
 140.8979214 105.4821885  75.8339740 140.0228707 103.1638749  75.6837234
 145.4028790 102.5715784  73.4027728 144.8362276 102.6910000  74.8280000
 143.4190000 102.6910000  74.8280000 143.5400000 101.7190000  74.8590000
 143.0151057 102.1421082  75.5552381 142.6213487 102.9514789  77.1137628
 141.9324599 105.8473217  75.7907677 140.6403039 105.1935211  76.8580313
 140.2404407 106.2651457  75.4582770 140.4299448 102.1900218  75.3907150
 138.9675256 103.2182270  75.4090774 140.1525857 103.3245068  76.7576063
 145.0119904 103.3844292  72.7799391 146.4961579 102.6283141  73.4247570
 145.1853253 103.6207113  75.2863684 145.1817374 101.8704533  75.4655830
 143.1146078 103.6225210  74.8280000 144.3900000 100.2660000  75.0000000
 140.9090000 105.8860000  83.7970000 141.3470000 105.5640000  82.4790000
 142.8636870 105.6970422  82.4110128 143.4698325 104.7964892  83.3352661
 139.9390000 105.7690000  83.7770000 140.8671500 106.2470745  81.7719185
 141.0384998 104.5358257  82.2659032 143.1797786 106.7099699  82.6820657
 143.2318866 105.4640970  81.4084997 143.0352520 104.9813657  84.1908065
 142.8410000 103.1020000  89.2200000 140.7870000 104.2490000  88.1040000
 140.8979214 105.4821885  88.9989740 140.0228707 103.1638749  88.8487234
 145.4028790 102.5715784  86.5677728 144.8362276 102.6910000  87.9930000
 143.4190000 102.6910000  87.9930000 143.5400000 101.7190000  88.0240000
 143.0151057 102.1421082  88.7202381 142.6213487 102.9514789  90.2787628
 141.9324599 105.8473217  88.9557677 140.6403039 105.1935211  90.0230313
 140.2404407 106.2651457  88.6232770 140.4299448 102.1900218  88.5557150
 138.9675256 103.2182270  88.5740774 140.1525857 103.3245068  89.9226063
 145.0119904 103.3844292  85.9449391 146.4961579 102.6283141  86.5897570
 145.1853253 103.6207113  88.4513684 145.1817374 101.8704533  88.6305830
 143.1146078 103.6225210  87.9930000 144.3900000 100.2660000  88.1650000
 140.9090000 105.8860000  96.9620000 141.3470000 105.5640000  95.6440000
 142.8636870 105.6970422  95.5760128 143.4698325 104.7964892  96.5002661
 139.9390000 105.7690000  96.9420000 140.8671500 106.2470745  94.9369185
 141.0384998 104.5358257  95.4309032 143.1797786 106.7099699  95.8470657
 143.2318866 105.4640970  94.5734997 143.0352520 104.9813657  97.3558065
 142.8410000 103.1020000 102.3850000 140.7870000 104.2490000 101.2690000
 140.8979214 105.4821885 102.1639740 140.0228707 103.1638749 102.0137234
 145.4028790 102.5715784  99.7327728 144.8362276 102.6910000 101.1580000
 143.4190000 102.6910000 101.1580000 143.5400000 101.7190000 101.1890000
 143.0151057 102.1421082 101.8852381 142.6213487 102.9514789 103.4437628
 141.9324599 105.8473217 102.1207677 140.6403039 105.1935211 103.1880313
 140.2404407 106.2651457 101.7882770 140.4299448 102.1900218 101.7207150
 138.9675256 103.2182270 101.7390774 140.1525857 103.3245068 103.0876063
 145.0119904 103.3844292  99.1099391 146.4961579 102.6283141  99.7547570
 145.1853253 103.6207113 101.6163684 145.1817374 101.8704533 101.7955830
 143.1146078 103.6225210 101.1580000 144.3900000 100.2660000 101.3300000
 140.9090000 105.8860000 110.1270000 141.3470000 105.5640000 108.8090000
 142.8636870 105.6970422 108.7410128 143.4698325 104.7964892 109.6652661
 139.9390000 105.7690000 110.1070000 140.8671500 106.2470745 108.1019185
 141.0384998 104.5358257 108.5959032 143.1797786 106.7099699 109.0120657
 143.2318866 105.4640970 107.7384997 143.0352520 104.9813657 110.5208065
 142.8410000 103.1020000 115.5510000 140.7870000 104.2490000 114.4350000
 140.8979214 105.4821885 115.3299740 140.0228707 103.1638749 115.1797234
 145.4028790 102.5715784 112.8987728 144.8362276 102.6910000 114.3240000
 143.4190000 102.6910000 114.3240000 143.5400000 101.7190000 114.3550000
 143.0151057 102.1421082 115.0512381 142.6213487 102.9514789 116.6097628
 141.9324599 105.8473217 115.2867677 140.6403039 105.1935211 116.3540313
 140.2404407 106.2651457 114.9542770 140.4299448 102.1900218 114.8867150
 138.9675256 103.2182270 114.9050774 140.1525857 103.3245068 116.2536063
 145.0119904 103.3844292 112.2759391 146.4961579 102.6283141 112.9207570
 145.1853253 103.6207113 114.7823684 145.1817374 101.8704533 114.9615830
 143.1146078 103.6225210 114.3240000 144.3900000 100.2660000 114.4960000
 140.9090000 105.8860000 123.2930000 141.3470000 105.5640000 121.9750000
 142.8636870 105.6970422 121.9070128 143.4698325 104.7964892 122.8312661
 139.9390000 105.7690000 123.2730000 140.8671500 106.2470745 121.2679185
 141.0384998 104.5358257 121.7619032 143.1797786 106.7099699 122.1780657
 143.2318866 105.4640970 120.9044997 143.0352520 104.9813657 123.6868065
 142.8410000 103.1020000 128.7160000 140.7870000 104.2490000 127.6000000
 140.8979214 105.4821885 128.4949740 140.0228707 103.1638749 128.3447234
 145.4028790 102.5715784 126.0637728 144.8362276 102.6910000 127.4890000
 143.4190000 102.6910000 127.4890000 143.5400000 101.7190000 127.5200000
 143.0151057 102.1421082 128.2162381 142.6213487 102.9514789 129.7747628
 141.9324599 105.8473217 128.4517677 140.6403039 105.1935211 129.5190313
 140.2404407 106.2651457 128.1192770 140.4299448 102.1900218 128.0517150
 138.9675256 103.2182270 128.0700774 140.1525857 103.3245068 129.4186063
 145.0119904 103.3844292 125.4409391 146.4961579 102.6283141 126.0857570
 145.1853253 103.6207113 127.9473684 145.1817374 101.8704533 128.1265830
 143.1146078 103.6225210 127.4890000 144.3900000 100.2660000 127.6610000
 140.9090000 105.8860000 136.4580000 141.3470000 105.5640000 135.1400000
 142.8636870 105.6970422 135.0720128 143.4698325 104.7964892 135.9962661
 139.9390000 105.7690000 136.4380000 140.8671500 106.2470745 134.4329185
 141.0384998 104.5358257 134.9269032 143.1797786 106.7099699 135.3430657
 143.2318866 105.4640970 134.0694997 143.0352520 104.9813657 136.8518065
 142.8410000 103.1020000 141.8810000 140.7870000 104.2490000 140.7650000
 140.8979214 105.4821885 141.6599740 140.0228707 103.1638749 141.5097234
 145.4028790 102.5715784 139.2287728 144.8362276 102.6910000 140.6540000
 143.4190000 102.6910000 140.6540000 143.5400000 101.7190000 140.6850000
 143.0151057 102.1421082 141.3812381 142.6213487 102.9514789 142.9397628
 141.9324599 105.8473217 141.6167677 140.6403039 105.1935211 142.6840313
 140.2404407 106.2651457 141.2842770 140.4299448 102.1900218 141.2167150
 138.9675256 103.2182270 141.2350774 140.1525857 103.3245068 142.5836063
 145.0119904 103.3844292 138.6059391 146.4961579 102.6283141 139.2507570
 145.1853253 103.6207113 141.1123684 145.1817374 101.8704533 141.2915830
 143.1146078 103.6225210 140.6540000 144.3900000 100.2660000 140.8260000
 140.9090000 105.8860000 149.6230000 141.3470000 105.5640000 148.3050000
 142.8636870 105.6970422 148.2370128 143.4698325 104.7964892 149.1612661
 139.9390000 105.7690000 149.6030000 140.8671500 106.2470745 147.5979185
 141.0384998 104.5358257 148.0919032 143.1797786 106.7099699 148.5080657
 143.2318866 105.4640970 147.2344997 143.0352520 104.9813657 150.0168065
 142.8410000 103.1020000 155.0460000 140.7870000 104.2490000 153.9300000
 140.8979214 105.4821885 154.8249740 140.0228707 103.1638749 154.6747234
 145.4028790 102.5715784 152.3937728 144.8362276 102.6910000 153.8190000
 143.4190000 102.6910000 153.8190000 143.5400000 101.7190000 153.8500000
 143.0151057 102.1421082 154.5462381 142.6213487 102.9514789 156.1047628
 141.9324599 105.8473217 154.7817677 140.6403039 105.1935211 155.8490313
 140.2404407 106.2651457 154.4492770 140.4299448 102.1900218 154.3817150
 138.9675256 103.2182270 154.4000774 140.1525857 103.3245068 155.7486063
 145.0119904 103.3844292 151.7709391 146.4961579 102.6283141 152.4157570
 145.1853253 103.6207113 154.2773684 145.1817374 101.8704533 154.4565830
 143.1146078 103.6225210 153.8190000 144.3900000 100.2660000 153.9910000
 140.9090000 105.8860000 162.7880000 141.3470000 105.5640000 161.4700000
 142.8636870 105.6970422 161.4020128 143.4698325 104.7964892 162.3262661
 139.9390000 105.7690000 162.7680000 140.8671500 106.2470745 160.7629185
 141.0384998 104.5358257 161.2569032 143.1797786 106.7099699 161.6730657
 143.2318866 105.4640970 160.3994997 143.0352520 104.9813657 163.1818065
 142.8410000 103.1020000 168.2110000 140.7870000 104.2490000 167.0950000
 140.8979214 105.4821885 167.9899740 140.0228707 103.1638749 167.8397234
 145.4028790 102.5715784 165.5587728 144.8362276 102.6910000 166.9840000
 143.4190000 102.6910000 166.9840000 143.5400000 101.7190000 167.0150000
 143.0151057 102.1421082 167.7112381 142.6213487 102.9514789 169.2697628
 141.9324599 105.8473217 167.9467677 140.6403039 105.1935211 169.0140313
 140.2404407 106.2651457 167.6142770 140.4299448 102.1900218 167.5467150
 138.9675256 103.2182270 167.5650774 140.1525857 103.3245068 168.9136063
 145.0119904 103.3844292 164.9359391 146.4961579 102.6283141 165.5807570
 145.1853253 103.6207113 167.4423684 145.1817374 101.8704533 167.6215830
 143.1146078 103.6225210 166.9840000 144.3900000 100.2660000 167.1560000
 140.9090000 105.8860000 175.9530000 141.3470000 105.5640000 174.6350000
 142.8636870 105.6970422 174.5670128 143.4698325 104.7964892 175.4912661
 139.9390000 105.7690000 175.9330000 140.8671500 106.2470745 173.9279185
 141.0384998 104.5358257 174.4219032 143.1797786 106.7099699 174.8380657
 143.2318866 105.4640970 173.5644997 143.0352520 104.9813657 176.3468065
 142.8410000 103.1020000 181.3770000 140.7870000 104.2490000 180.2610000
 140.8979214 105.4821885 181.1559740 140.0228707 103.1638749 181.0057234
 145.4028790 102.5715784 178.7247728 144.8362276 102.6910000 180.1500000
 143.4190000 102.6910000 180.1500000 143.5400000 101.7190000 180.1810000
 143.0151057 102.1421082 180.8772381 142.6213487 102.9514789 182.4357628
 141.9324599 105.8473217 181.1127677 140.6403039 105.1935211 182.1800313
 140.2404407 106.2651457 180.7802770 140.4299448 102.1900218 180.7127150
 138.9675256 103.2182270 180.7310774 140.1525857 103.3245068 182.0796063
 145.0119904 103.3844292 178.1019391 146.4961579 102.6283141 178.7467570
 145.1853253 103.6207113 180.6083684 145.1817374 101.8704533 180.7875830
 143.1146078 103.6225210 180.1500000 144.3900000 100.2660000 180.3220000
 140.9090000 105.8860000 189.1190000 141.3470000 105.5640000 187.8010000
 142.8636870 105.6970422 187.7330128 143.4698325 104.7964892 188.6572661
 139.9390000 105.7690000 189.0990000 140.8671500 106.2470745 187.0939185
 141.0384998 104.5358257 187.5879032 143.1797786 106.7099699 188.0040657
 143.2318866 105.4640970 186.7304997 143.0352520 104.9813657 189.5128065
 142.8410000 103.1020000 194.5420000 140.7870000 104.2490000 193.4260000
 140.8979214 105.4821885 194.3209740 140.0228707 103.1638749 194.1707234
 145.4028790 102.5715784 191.8897728 144.8362276 102.6910000 193.3150000
 143.4190000 102.6910000 193.3150000 143.5400000 101.7190000 193.3460000
 143.0151057 102.1421082 194.0422381 142.6213487 102.9514789 195.6007628
 141.9324599 105.8473217 194.2777677 140.6403039 105.1935211 195.3450313
 140.2404407 106.2651457 193.9452770 140.4299448 102.1900218 193.8777150
 138.9675256 103.2182270 193.8960774 140.1525857 103.3245068 195.2446063
 145.0119904 103.3844292 191.2669391 146.4961579 102.6283141 191.9117570
 145.1853253 103.6207113 193.7733684 145.1817374 101.8704533 193.9525830
 143.1146078 103.6225210 193.3150000 144.3900000 100.2660000 193.4870000
 140.9090000 105.8860000 202.2840000 141.3470000 105.5640000 200.9660000
 142.8636870 105.6970422 200.8980128 143.4698325 104.7964892 201.8222661
 139.9390000 105.7690000 202.2640000 140.8671500 106.2470745 200.2589185
 141.0384998 104.5358257 200.7529032 143.1797786 106.7099699 201.1690657
 143.2318866 105.4640970 199.8954997 143.0352520 104.9813657 202.6778065
 142.8410000 110.4180000  76.0550000 140.7870000 111.5650000  74.9390000
 140.8979214 112.7981885  75.8339740 140.0228707 110.4798749  75.6837234
 145.4028790 109.8875784  73.4027728 144.8362276 110.0070000  74.8280000
 143.4190000 110.0070000  74.8280000 143.5400000 109.0350000  74.8590000
 143.0151057 109.4581082  75.5552381 142.6213487 110.2674789  77.1137628
 141.9324599 113.1633217  75.7907677 140.6403039 112.5095211  76.8580313
 140.2404407 113.5811457  75.4582770 140.4299448 109.5060218  75.3907150
 138.9675256 110.5342270  75.4090774 140.1525857 110.6405068  76.7576063
 145.0119904 110.7004292  72.7799391 146.4961579 109.9443141  73.4247570
 145.1853253 110.9367113  75.2863684 145.1817374 109.1864533  75.4655830
 143.1146078 110.9385210  74.8280000 144.3900000 107.5820000  75.0000000
 140.9090000 113.2020000  83.7970000 141.3470000 112.8800000  82.4790000
 142.8636870 113.0130422  82.4110128 143.4698325 112.1124892  83.3352661
 139.9390000 113.0850000  83.7770000 140.8671500 113.5630745  81.7719185
 141.0384998 111.8518257  82.2659032 143.1797786 114.0259699  82.6820657
 143.2318866 112.7800970  81.4084997 143.0352520 112.2973657  84.1908065
 142.8410000 110.4180000  89.2200000 140.7870000 111.5650000  88.1040000
 140.8979214 112.7981885  88.9989740 140.0228707 110.4798749  88.8487234
 145.4028790 109.8875784  86.5677728 144.8362276 110.0070000  87.9930000
 143.4190000 110.0070000  87.9930000 143.5400000 109.0350000  88.0240000
 143.0151057 109.4581082  88.7202381 142.6213487 110.2674789  90.2787628
 141.9324599 113.1633217  88.9557677 140.6403039 112.5095211  90.0230313
 140.2404407 113.5811457  88.6232770 140.4299448 109.5060218  88.5557150
 138.9675256 110.5342270  88.5740774 140.1525857 110.6405068  89.9226063
 145.0119904 110.7004292  85.9449391 146.4961579 109.9443141  86.5897570
 145.1853253 110.9367113  88.4513684 145.1817374 109.1864533  88.6305830
 143.1146078 110.9385210  87.9930000 144.3900000 107.5820000  88.1650000
 140.9090000 113.2020000  96.9620000 141.3470000 112.8800000  95.6440000
 142.8636870 113.0130422  95.5760128 143.4698325 112.1124892  96.5002661
 139.9390000 113.0850000  96.9420000 140.8671500 113.5630745  94.9369185
 141.0384998 111.8518257  95.4309032 143.1797786 114.0259699  95.8470657
 143.2318866 112.7800970  94.5734997 143.0352520 112.2973657  97.3558065
 142.8410000 110.4180000 102.3850000 140.7870000 111.5650000 101.2690000
 140.8979214 112.7981885 102.1639740 140.0228707 110.4798749 102.0137234
 145.4028790 109.8875784  99.7327728 144.8362276 110.0070000 101.1580000
 143.4190000 110.0070000 101.1580000 143.5400000 109.0350000 101.1890000
 143.0151057 109.4581082 101.8852381 142.6213487 110.2674789 103.4437628
 141.9324599 113.1633217 102.1207677 140.6403039 112.5095211 103.1880313
 140.2404407 113.5811457 101.7882770 140.4299448 109.5060218 101.7207150
 138.9675256 110.5342270 101.7390774 140.1525857 110.6405068 103.0876063
 145.0119904 110.7004292  99.1099391 146.4961579 109.9443141  99.7547570
 145.1853253 110.9367113 101.6163684 145.1817374 109.1864533 101.7955830
 143.1146078 110.9385210 101.1580000 144.3900000 107.5820000 101.3300000
 140.9090000 113.2020000 110.1270000 141.3470000 112.8800000 108.8090000
 142.8636870 113.0130422 108.7410128 143.4698325 112.1124892 109.6652661
 139.9390000 113.0850000 110.1070000 140.8671500 113.5630745 108.1019185
 141.0384998 111.8518257 108.5959032 143.1797786 114.0259699 109.0120657
 143.2318866 112.7800970 107.7384997 143.0352520 112.2973657 110.5208065
 142.8410000 110.4180000 115.5510000 140.7870000 111.5650000 114.4350000
 140.8979214 112.7981885 115.3299740 140.0228707 110.4798749 115.1797234
 145.4028790 109.8875784 112.8987728 144.8362276 110.0070000 114.3240000
 143.4190000 110.0070000 114.3240000 143.5400000 109.0350000 114.3550000
 143.0151057 109.4581082 115.0512381 142.6213487 110.2674789 116.6097628
 141.9324599 113.1633217 115.2867677 140.6403039 112.5095211 116.3540313
 140.2404407 113.5811457 114.9542770 140.4299448 109.5060218 114.8867150
 138.9675256 110.5342270 114.9050774 140.1525857 110.6405068 116.2536063
 145.0119904 110.7004292 112.2759391 146.4961579 109.9443141 112.9207570
 145.1853253 110.9367113 114.7823684 145.1817374 109.1864533 114.9615830
 143.1146078 110.9385210 114.3240000 144.3900000 107.5820000 114.4960000
 140.9090000 113.2020000 123.2930000 141.3470000 112.8800000 121.9750000
 142.8636870 113.0130422 121.9070128 143.4698325 112.1124892 122.8312661
 139.9390000 113.0850000 123.2730000 140.8671500 113.5630745 121.2679185
 141.0384998 111.8518257 121.7619032 143.1797786 114.0259699 122.1780657
 143.2318866 112.7800970 120.9044997 143.0352520 112.2973657 123.6868065
 142.8410000 110.4180000 128.7160000 140.7870000 111.5650000 127.6000000
 140.8979214 112.7981885 128.4949740 140.0228707 110.4798749 128.3447234
 145.4028790 109.8875784 126.0637728 144.8362276 110.0070000 127.4890000
 143.4190000 110.0070000 127.4890000 143.5400000 109.0350000 127.5200000
 143.0151057 109.4581082 128.2162381 142.6213487 110.2674789 129.7747628
 141.9324599 113.1633217 128.4517677 140.6403039 112.5095211 129.5190313
 140.2404407 113.5811457 128.1192770 140.4299448 109.5060218 128.0517150
 138.9675256 110.5342270 128.0700774 140.1525857 110.6405068 129.4186063
 145.0119904 110.7004292 125.4409391 146.4961579 109.9443141 126.0857570
 145.1853253 110.9367113 127.9473684 145.1817374 109.1864533 128.1265830
 143.1146078 110.9385210 127.4890000 144.3900000 107.5820000 127.6610000
 140.9090000 113.2020000 136.4580000 141.3470000 112.8800000 135.1400000
 142.8636870 113.0130422 135.0720128 143.4698325 112.1124892 135.9962661
 139.9390000 113.0850000 136.4380000 140.8671500 113.5630745 134.4329185
 141.0384998 111.8518257 134.9269032 143.1797786 114.0259699 135.3430657
 143.2318866 112.7800970 134.0694997 143.0352520 112.2973657 136.8518065
 142.8410000 110.4180000 141.8810000 140.7870000 111.5650000 140.7650000
 140.8979214 112.7981885 141.6599740 140.0228707 110.4798749 141.5097234
 145.4028790 109.8875784 139.2287728 144.8362276 110.0070000 140.6540000
 143.4190000 110.0070000 140.6540000 143.5400000 109.0350000 140.6850000
 143.0151057 109.4581082 141.3812381 142.6213487 110.2674789 142.9397628
 141.9324599 113.1633217 141.6167677 140.6403039 112.5095211 142.6840313
 140.2404407 113.5811457 141.2842770 140.4299448 109.5060218 141.2167150
 138.9675256 110.5342270 141.2350774 140.1525857 110.6405068 142.5836063
 145.0119904 110.7004292 138.6059391 146.4961579 109.9443141 139.2507570
 145.1853253 110.9367113 141.1123684 145.1817374 109.1864533 141.2915830
 143.1146078 110.9385210 140.6540000 144.3900000 107.5820000 140.8260000
 140.9090000 113.2020000 149.6230000 141.3470000 112.8800000 148.3050000
 142.8636870 113.0130422 148.2370128 143.4698325 112.1124892 149.1612661
 139.9390000 113.0850000 149.6030000 140.8671500 113.5630745 147.5979185
 141.0384998 111.8518257 148.0919032 143.1797786 114.0259699 148.5080657
 143.2318866 112.7800970 147.2344997 143.0352520 112.2973657 150.0168065
 142.8410000 110.4180000 155.0460000 140.7870000 111.5650000 153.9300000
 140.8979214 112.7981885 154.8249740 140.0228707 110.4798749 154.6747234
 145.4028790 109.8875784 152.3937728 144.8362276 110.0070000 153.8190000
 143.4190000 110.0070000 153.8190000 143.5400000 109.0350000 153.8500000
 143.0151057 109.4581082 154.5462381 142.6213487 110.2674789 156.1047628
 141.9324599 113.1633217 154.7817677 140.6403039 112.5095211 155.8490313
 140.2404407 113.5811457 154.4492770 140.4299448 109.5060218 154.3817150
 138.9675256 110.5342270 154.4000774 140.1525857 110.6405068 155.7486063
 145.0119904 110.7004292 151.7709391 146.4961579 109.9443141 152.4157570
 145.1853253 110.9367113 154.2773684 145.1817374 109.1864533 154.4565830
 143.1146078 110.9385210 153.8190000 144.3900000 107.5820000 153.9910000
 140.9090000 113.2020000 162.7880000 141.3470000 112.8800000 161.4700000
 142.8636870 113.0130422 161.4020128 143.4698325 112.1124892 162.3262661
 139.9390000 113.0850000 162.7680000 140.8671500 113.5630745 160.7629185
 141.0384998 111.8518257 161.2569032 143.1797786 114.0259699 161.6730657
 143.2318866 112.7800970 160.3994997 143.0352520 112.2973657 163.1818065
 142.8410000 110.4180000 168.2110000 140.7870000 111.5650000 167.0950000
 140.8979214 112.7981885 167.9899740 140.0228707 110.4798749 167.8397234
 145.4028790 109.8875784 165.5587728 144.8362276 110.0070000 166.9840000
 143.4190000 110.0070000 166.9840000 143.5400000 109.0350000 167.0150000
 143.0151057 109.4581082 167.7112381 142.6213487 110.2674789 169.2697628
 141.9324599 113.1633217 167.9467677 140.6403039 112.5095211 169.0140313
 140.2404407 113.5811457 167.6142770 140.4299448 109.5060218 167.5467150
 138.9675256 110.5342270 167.5650774 140.1525857 110.6405068 168.9136063
 145.0119904 110.7004292 164.9359391 146.4961579 109.9443141 165.5807570
 145.1853253 110.9367113 167.4423684 145.1817374 109.1864533 167.6215830
 143.1146078 110.9385210 166.9840000 144.3900000 107.5820000 167.1560000
 140.9090000 113.2020000 175.9530000 141.3470000 112.8800000 174.6350000
 142.8636870 113.0130422 174.5670128 143.4698325 112.1124892 175.4912661
 139.9390000 113.0850000 175.9330000 140.8671500 113.5630745 173.9279185
 141.0384998 111.8518257 174.4219032 143.1797786 114.0259699 174.8380657
 143.2318866 112.7800970 173.5644997 143.0352520 112.2973657 176.3468065
 142.8410000 110.4180000 181.3770000 140.7870000 111.5650000 180.2610000
 140.8979214 112.7981885 181.1559740 140.0228707 110.4798749 181.0057234
 145.4028790 109.8875784 178.7247728 144.8362276 110.0070000 180.1500000
 143.4190000 110.0070000 180.1500000 143.5400000 109.0350000 180.1810000
 143.0151057 109.4581082 180.8772381 142.6213487 110.2674789 182.4357628
 141.9324599 113.1633217 181.1127677 140.6403039 112.5095211 182.1800313
 140.2404407 113.5811457 180.7802770 140.4299448 109.5060218 180.7127150
 138.9675256 110.5342270 180.7310774 140.1525857 110.6405068 182.0796063
 145.0119904 110.7004292 178.1019391 146.4961579 109.9443141 178.7467570
 145.1853253 110.9367113 180.6083684 145.1817374 109.1864533 180.7875830
 143.1146078 110.9385210 180.1500000 144.3900000 107.5820000 180.3220000
 140.9090000 113.2020000 189.1190000 141.3470000 112.8800000 187.8010000
 142.8636870 113.0130422 187.7330128 143.4698325 112.1124892 188.6572661
 139.9390000 113.0850000 189.0990000 140.8671500 113.5630745 187.0939185
 141.0384998 111.8518257 187.5879032 143.1797786 114.0259699 188.0040657
 143.2318866 112.7800970 186.7304997 143.0352520 112.2973657 189.5128065
 142.8410000 110.4180000 194.5420000 140.7870000 111.5650000 193.4260000
 140.8979214 112.7981885 194.3209740 140.0228707 110.4798749 194.1707234
 145.4028790 109.8875784 191.8897728 144.8362276 110.0070000 193.3150000
 143.4190000 110.0070000 193.3150000 143.5400000 109.0350000 193.3460000
 143.0151057 109.4581082 194.0422381 142.6213487 110.2674789 195.6007628
 141.9324599 113.1633217 194.2777677 140.6403039 112.5095211 195.3450313
 140.2404407 113.5811457 193.9452770 140.4299448 109.5060218 193.8777150
 138.9675256 110.5342270 193.8960774 140.1525857 110.6405068 195.2446063
 145.0119904 110.7004292 191.2669391 146.4961579 109.9443141 191.9117570
 145.1853253 110.9367113 193.7733684 145.1817374 109.1864533 193.9525830
 143.1146078 110.9385210 193.3150000 144.3900000 107.5820000 193.4870000
 140.9090000 113.2020000 202.2840000 141.3470000 112.8800000 200.9660000
 142.8636870 113.0130422 200.8980128 143.4698325 112.1124892 201.8222661
 139.9390000 113.0850000 202.2640000 140.8671500 113.5630745 200.2589185
 141.0384998 111.8518257 200.7529032 143.1797786 114.0259699 201.1690657
 143.2318866 112.7800970 199.8954997 143.0352520 112.2973657 202.6778065
 142.8410000 117.7340000  76.0550000 140.7870000 118.8810000  74.9390000
 140.8979214 120.1141885  75.8339740 140.0228707 117.7958749  75.6837234
 145.4028790 117.2035784  73.4027728 144.8362276 117.3230000  74.8280000
 143.4190000 117.3230000  74.8280000 143.5400000 116.3510000  74.8590000
 143.0151057 116.7741082  75.5552381 142.6213487 117.5834789  77.1137628
 141.9324599 120.4793217  75.7907677 140.6403039 119.8255211  76.8580313
 140.2404407 120.8971457  75.4582770 140.4299448 116.8220218  75.3907150
 138.9675256 117.8502270  75.4090774 140.1525857 117.9565068  76.7576063
 145.0119904 118.0164292  72.7799391 146.4961579 117.2603141  73.4247570
 145.1853253 118.2527113  75.2863684 145.1817374 116.5024533  75.4655830
 143.1146078 118.2545210  74.8280000 144.3900000 114.8980000  75.0000000
 140.9090000 120.5180000  83.7970000 141.3470000 120.1960000  82.4790000
 142.8636870 120.3290422  82.4110128 143.4698325 119.4284892  83.3352661
 139.9390000 120.4010000  83.7770000 140.8671500 120.8790745  81.7719185
 141.0384998 119.1678257  82.2659032 143.1797786 121.3419699  82.6820657
 143.2318866 120.0960970  81.4084997 143.0352520 119.6133657  84.1908065
 142.8410000 117.7340000  89.2200000 140.7870000 118.8810000  88.1040000
 140.8979214 120.1141885  88.9989740 140.0228707 117.7958749  88.8487234
 145.4028790 117.2035784  86.5677728 144.8362276 117.3230000  87.9930000
 143.4190000 117.3230000  87.9930000 143.5400000 116.3510000  88.0240000
 143.0151057 116.7741082  88.7202381 142.6213487 117.5834789  90.2787628
 141.9324599 120.4793217  88.9557677 140.6403039 119.8255211  90.0230313
 140.2404407 120.8971457  88.6232770 140.4299448 116.8220218  88.5557150
 138.9675256 117.8502270  88.5740774 140.1525857 117.9565068  89.9226063
 145.0119904 118.0164292  85.9449391 146.4961579 117.2603141  86.5897570
 145.1853253 118.2527113  88.4513684 145.1817374 116.5024533  88.6305830
 143.1146078 118.2545210  87.9930000 144.3900000 114.8980000  88.1650000
 140.9090000 120.5180000  96.9620000 141.3470000 120.1960000  95.6440000
 142.8636870 120.3290422  95.5760128 143.4698325 119.4284892  96.5002661
 139.9390000 120.4010000  96.9420000 140.8671500 120.8790745  94.9369185
 141.0384998 119.1678257  95.4309032 143.1797786 121.3419699  95.8470657
 143.2318866 120.0960970  94.5734997 143.0352520 119.6133657  97.3558065
 142.8410000 117.7340000 102.3850000 140.7870000 118.8810000 101.2690000
 140.8979214 120.1141885 102.1639740 140.0228707 117.7958749 102.0137234
 145.4028790 117.2035784  99.7327728 144.8362276 117.3230000 101.1580000
 143.4190000 117.3230000 101.1580000 143.5400000 116.3510000 101.1890000
 143.0151057 116.7741082 101.8852381 142.6213487 117.5834789 103.4437628
 141.9324599 120.4793217 102.1207677 140.6403039 119.8255211 103.1880313
 140.2404407 120.8971457 101.7882770 140.4299448 116.8220218 101.7207150
 138.9675256 117.8502270 101.7390774 140.1525857 117.9565068 103.0876063
 145.0119904 118.0164292  99.1099391 146.4961579 117.2603141  99.7547570
 145.1853253 118.2527113 101.6163684 145.1817374 116.5024533 101.7955830
 143.1146078 118.2545210 101.1580000 144.3900000 114.8980000 101.3300000
 140.9090000 120.5180000 110.1270000 141.3470000 120.1960000 108.8090000
 142.8636870 120.3290422 108.7410128 143.4698325 119.4284892 109.6652661
 139.9390000 120.4010000 110.1070000 140.8671500 120.8790745 108.1019185
 141.0384998 119.1678257 108.5959032 143.1797786 121.3419699 109.0120657
 143.2318866 120.0960970 107.7384997 143.0352520 119.6133657 110.5208065
 142.8410000 117.7340000 115.5510000 140.7870000 118.8810000 114.4350000
 140.8979214 120.1141885 115.3299740 140.0228707 117.7958749 115.1797234
 145.4028790 117.2035784 112.8987728 144.8362276 117.3230000 114.3240000
 143.4190000 117.3230000 114.3240000 143.5400000 116.3510000 114.3550000
 143.0151057 116.7741082 115.0512381 142.6213487 117.5834789 116.6097628
 141.9324599 120.4793217 115.2867677 140.6403039 119.8255211 116.3540313
 140.2404407 120.8971457 114.9542770 140.4299448 116.8220218 114.8867150
 138.9675256 117.8502270 114.9050774 140.1525857 117.9565068 116.2536063
 145.0119904 118.0164292 112.2759391 146.4961579 117.2603141 112.9207570
 145.1853253 118.2527113 114.7823684 145.1817374 116.5024533 114.9615830
 143.1146078 118.2545210 114.3240000 144.3900000 114.8980000 114.4960000
 140.9090000 120.5180000 123.2930000 141.3470000 120.1960000 121.9750000
 142.8636870 120.3290422 121.9070128 143.4698325 119.4284892 122.8312661
 139.9390000 120.4010000 123.2730000 140.8671500 120.8790745 121.2679185
 141.0384998 119.1678257 121.7619032 143.1797786 121.3419699 122.1780657
 143.2318866 120.0960970 120.9044997 143.0352520 119.6133657 123.6868065
 142.8410000 117.7340000 128.7160000 140.7870000 118.8810000 127.6000000
 140.8979214 120.1141885 128.4949740 140.0228707 117.7958749 128.3447234
 145.4028790 117.2035784 126.0637728 144.8362276 117.3230000 127.4890000
 143.4190000 117.3230000 127.4890000 143.5400000 116.3510000 127.5200000
 143.0151057 116.7741082 128.2162381 142.6213487 117.5834789 129.7747628
 141.9324599 120.4793217 128.4517677 140.6403039 119.8255211 129.5190313
 140.2404407 120.8971457 128.1192770 140.4299448 116.8220218 128.0517150
 138.9675256 117.8502270 128.0700774 140.1525857 117.9565068 129.4186063
 145.0119904 118.0164292 125.4409391 146.4961579 117.2603141 126.0857570
 145.1853253 118.2527113 127.9473684 145.1817374 116.5024533 128.1265830
 143.1146078 118.2545210 127.4890000 144.3900000 114.8980000 127.6610000
 140.9090000 120.5180000 136.4580000 141.3470000 120.1960000 135.1400000
 142.8636870 120.3290422 135.0720128 143.4698325 119.4284892 135.9962661
 139.9390000 120.4010000 136.4380000 140.8671500 120.8790745 134.4329185
 141.0384998 119.1678257 134.9269032 143.1797786 121.3419699 135.3430657
 143.2318866 120.0960970 134.0694997 143.0352520 119.6133657 136.8518065
 142.8410000 117.7340000 141.8810000 140.7870000 118.8810000 140.7650000
 140.8979214 120.1141885 141.6599740 140.0228707 117.7958749 141.5097234
 145.4028790 117.2035784 139.2287728 144.8362276 117.3230000 140.6540000
 143.4190000 117.3230000 140.6540000 143.5400000 116.3510000 140.6850000
 143.0151057 116.7741082 141.3812381 142.6213487 117.5834789 142.9397628
 141.9324599 120.4793217 141.6167677 140.6403039 119.8255211 142.6840313
 140.2404407 120.8971457 141.2842770 140.4299448 116.8220218 141.2167150
 138.9675256 117.8502270 141.2350774 140.1525857 117.9565068 142.5836063
 145.0119904 118.0164292 138.6059391 146.4961579 117.2603141 139.2507570
 145.1853253 118.2527113 141.1123684 145.1817374 116.5024533 141.2915830
 143.1146078 118.2545210 140.6540000 144.3900000 114.8980000 140.8260000
 140.9090000 120.5180000 149.6230000 141.3470000 120.1960000 148.3050000
 142.8636870 120.3290422 148.2370128 143.4698325 119.4284892 149.1612661
 139.9390000 120.4010000 149.6030000 140.8671500 120.8790745 147.5979185
 141.0384998 119.1678257 148.0919032 143.1797786 121.3419699 148.5080657
 143.2318866 120.0960970 147.2344997 143.0352520 119.6133657 150.0168065
 142.8410000 117.7340000 155.0460000 140.7870000 118.8810000 153.9300000
 140.8979214 120.1141885 154.8249740 140.0228707 117.7958749 154.6747234
 145.4028790 117.2035784 152.3937728 144.8362276 117.3230000 153.8190000
 143.4190000 117.3230000 153.8190000 143.5400000 116.3510000 153.8500000
 143.0151057 116.7741082 154.5462381 142.6213487 117.5834789 156.1047628
 141.9324599 120.4793217 154.7817677 140.6403039 119.8255211 155.8490313
 140.2404407 120.8971457 154.4492770 140.4299448 116.8220218 154.3817150
 138.9675256 117.8502270 154.4000774 140.1525857 117.9565068 155.7486063
 145.0119904 118.0164292 151.7709391 146.4961579 117.2603141 152.4157570
 145.1853253 118.2527113 154.2773684 145.1817374 116.5024533 154.4565830
 143.1146078 118.2545210 153.8190000 144.3900000 114.8980000 153.9910000
 140.9090000 120.5180000 162.7880000 141.3470000 120.1960000 161.4700000
 142.8636870 120.3290422 161.4020128 143.4698325 119.4284892 162.3262661
 139.9390000 120.4010000 162.7680000 140.8671500 120.8790745 160.7629185
 141.0384998 119.1678257 161.2569032 143.1797786 121.3419699 161.6730657
 143.2318866 120.0960970 160.3994997 143.0352520 119.6133657 163.1818065
 142.8410000 117.7340000 168.2110000 140.7870000 118.8810000 167.0950000
 140.8979214 120.1141885 167.9899740 140.0228707 117.7958749 167.8397234
 145.4028790 117.2035784 165.5587728 144.8362276 117.3230000 166.9840000
 143.4190000 117.3230000 166.9840000 143.5400000 116.3510000 167.0150000
 143.0151057 116.7741082 167.7112381 142.6213487 117.5834789 169.2697628
 141.9324599 120.4793217 167.9467677 140.6403039 119.8255211 169.0140313
 140.2404407 120.8971457 167.6142770 140.4299448 116.8220218 167.5467150
 138.9675256 117.8502270 167.5650774 140.1525857 117.9565068 168.9136063
 145.0119904 118.0164292 164.9359391 146.4961579 117.2603141 165.5807570
 145.1853253 118.2527113 167.4423684 145.1817374 116.5024533 167.6215830
 143.1146078 118.2545210 166.9840000 144.3900000 114.8980000 167.1560000
 140.9090000 120.5180000 175.9530000 141.3470000 120.1960000 174.6350000
 142.8636870 120.3290422 174.5670128 143.4698325 119.4284892 175.4912661
 139.9390000 120.4010000 175.9330000 140.8671500 120.8790745 173.9279185
 141.0384998 119.1678257 174.4219032 143.1797786 121.3419699 174.8380657
 143.2318866 120.0960970 173.5644997 143.0352520 119.6133657 176.3468065
 142.8410000 117.7340000 181.3770000 140.7870000 118.8810000 180.2610000
 140.8979214 120.1141885 181.1559740 140.0228707 117.7958749 181.0057234
 145.4028790 117.2035784 178.7247728 144.8362276 117.3230000 180.1500000
 143.4190000 117.3230000 180.1500000 143.5400000 116.3510000 180.1810000
 143.0151057 116.7741082 180.8772381 142.6213487 117.5834789 182.4357628
 141.9324599 120.4793217 181.1127677 140.6403039 119.8255211 182.1800313
 140.2404407 120.8971457 180.7802770 140.4299448 116.8220218 180.7127150
 138.9675256 117.8502270 180.7310774 140.1525857 117.9565068 182.0796063
 145.0119904 118.0164292 178.1019391 146.4961579 117.2603141 178.7467570
 145.1853253 118.2527113 180.6083684 145.1817374 116.5024533 180.7875830
 143.1146078 118.2545210 180.1500000 144.3900000 114.8980000 180.3220000
 140.9090000 120.5180000 189.1190000 141.3470000 120.1960000 187.8010000
 142.8636870 120.3290422 187.7330128 143.4698325 119.4284892 188.6572661
 139.9390000 120.4010000 189.0990000 140.8671500 120.8790745 187.0939185
 141.0384998 119.1678257 187.5879032 143.1797786 121.3419699 188.0040657
 143.2318866 120.0960970 186.7304997 143.0352520 119.6133657 189.5128065
 142.8410000 117.7340000 194.5420000 140.7870000 118.8810000 193.4260000
 140.8979214 120.1141885 194.3209740 140.0228707 117.7958749 194.1707234
 145.4028790 117.2035784 191.8897728 144.8362276 117.3230000 193.3150000
 143.4190000 117.3230000 193.3150000 143.5400000 116.3510000 193.3460000
 143.0151057 116.7741082 194.0422381 142.6213487 117.5834789 195.6007628
 141.9324599 120.4793217 194.2777677 140.6403039 119.8255211 195.3450313
 140.2404407 120.8971457 193.9452770 140.4299448 116.8220218 193.8777150
 138.9675256 117.8502270 193.8960774 140.1525857 117.9565068 195.2446063
 145.0119904 118.0164292 191.2669391 146.4961579 117.2603141 191.9117570
 145.1853253 118.2527113 193.7733684 145.1817374 116.5024533 193.9525830
 143.1146078 118.2545210 193.3150000 144.3900000 114.8980000 193.4870000
 140.9090000 120.5180000 202.2840000 141.3470000 120.1960000 200.9660000
 142.8636870 120.3290422 200.8980128 143.4698325 119.4284892 201.8222661
 139.9390000 120.4010000 202.2640000 140.8671500 120.8790745 200.2589185
 141.0384998 119.1678257 200.7529032 143.1797786 121.3419699 201.1690657
 143.2318866 120.0960970 199.8954997 143.0352520 119.6133657 202.6778065
 142.8410000 125.0510000  76.0550000 140.7870000 126.1980000  74.9390000
 140.8979214 127.4311885  75.8339740 140.0228707 125.1128749  75.6837234
 145.4028790 124.5205784  73.4027728 144.8362276 124.6400000  74.8280000
 143.4190000 124.6400000  74.8280000 143.5400000 123.6680000  74.8590000
 143.0151057 124.0911082  75.5552381 142.6213487 124.9004789  77.1137628
 141.9324599 127.7963217  75.7907677 140.6403039 127.1425211  76.8580313
 140.2404407 128.2141457  75.4582770 140.4299448 124.1390218  75.3907150
 138.9675256 125.1672270  75.4090774 140.1525857 125.2735068  76.7576063
 145.0119904 125.3334292  72.7799391 146.4961579 124.5773141  73.4247570
 145.1853253 125.5697113  75.2863684 145.1817374 123.8194533  75.4655830
 143.1146078 125.5715210  74.8280000 144.3900000 122.2150000  75.0000000
 140.9090000 127.8350000  83.7970000 141.3470000 127.5130000  82.4790000
 142.8636870 127.6460422  82.4110128 143.4698325 126.7454892  83.3352661
 139.9390000 127.7180000  83.7770000 140.8671500 128.1960745  81.7719185
 141.0384998 126.4848257  82.2659032 143.1797786 128.6589699  82.6820657
 143.2318866 127.4130970  81.4084997 143.0352520 126.9303657  84.1908065
 142.8410000 125.0510000  89.2200000 140.7870000 126.1980000  88.1040000
 140.8979214 127.4311885  88.9989740 140.0228707 125.1128749  88.8487234
 145.4028790 124.5205784  86.5677728 144.8362276 124.6400000  87.9930000
 143.4190000 124.6400000  87.9930000 143.5400000 123.6680000  88.0240000
 143.0151057 124.0911082  88.7202381 142.6213487 124.9004789  90.2787628
 141.9324599 127.7963217  88.9557677 140.6403039 127.1425211  90.0230313
 140.2404407 128.2141457  88.6232770 140.4299448 124.1390218  88.5557150
 138.9675256 125.1672270  88.5740774 140.1525857 125.2735068  89.9226063
 145.0119904 125.3334292  85.9449391 146.4961579 124.5773141  86.5897570
 145.1853253 125.5697113  88.4513684 145.1817374 123.8194533  88.6305830
 143.1146078 125.5715210  87.9930000 144.3900000 122.2150000  88.1650000
 140.9090000 127.8350000  96.9620000 141.3470000 127.5130000  95.6440000
 142.8636870 127.6460422  95.5760128 143.4698325 126.7454892  96.5002661
 139.9390000 127.7180000  96.9420000 140.8671500 128.1960745  94.9369185
 141.0384998 126.4848257  95.4309032 143.1797786 128.6589699  95.8470657
 143.2318866 127.4130970  94.5734997 143.0352520 126.9303657  97.3558065
 142.8410000 125.0510000 102.3850000 140.7870000 126.1980000 101.2690000
 140.8979214 127.4311885 102.1639740 140.0228707 125.1128749 102.0137234
 145.4028790 124.5205784  99.7327728 144.8362276 124.6400000 101.1580000
 143.4190000 124.6400000 101.1580000 143.5400000 123.6680000 101.1890000
 143.0151057 124.0911082 101.8852381 142.6213487 124.9004789 103.4437628
 141.9324599 127.7963217 102.1207677 140.6403039 127.1425211 103.1880313
 140.2404407 128.2141457 101.7882770 140.4299448 124.1390218 101.7207150
 138.9675256 125.1672270 101.7390774 140.1525857 125.2735068 103.0876063
 145.0119904 125.3334292  99.1099391 146.4961579 124.5773141  99.7547570
 145.1853253 125.5697113 101.6163684 145.1817374 123.8194533 101.7955830
 143.1146078 125.5715210 101.1580000 144.3900000 122.2150000 101.3300000
 140.9090000 127.8350000 110.1270000 141.3470000 127.5130000 108.8090000
 142.8636870 127.6460422 108.7410128 143.4698325 126.7454892 109.6652661
 139.9390000 127.7180000 110.1070000 140.8671500 128.1960745 108.1019185
 141.0384998 126.4848257 108.5959032 143.1797786 128.6589699 109.0120657
 143.2318866 127.4130970 107.7384997 143.0352520 126.9303657 110.5208065
 142.8410000 125.0510000 115.5510000 140.7870000 126.1980000 114.4350000
 140.8979214 127.4311885 115.3299740 140.0228707 125.1128749 115.1797234
 145.4028790 124.5205784 112.8987728 144.8362276 124.6400000 114.3240000
 143.4190000 124.6400000 114.3240000 143.5400000 123.6680000 114.3550000
 143.0151057 124.0911082 115.0512381 142.6213487 124.9004789 116.6097628
 141.9324599 127.7963217 115.2867677 140.6403039 127.1425211 116.3540313
 140.2404407 128.2141457 114.9542770 140.4299448 124.1390218 114.8867150
 138.9675256 125.1672270 114.9050774 140.1525857 125.2735068 116.2536063
 145.0119904 125.3334292 112.2759391 146.4961579 124.5773141 112.9207570
 145.1853253 125.5697113 114.7823684 145.1817374 123.8194533 114.9615830
 143.1146078 125.5715210 114.3240000 144.3900000 122.2150000 114.4960000
 140.9090000 127.8350000 123.2930000 141.3470000 127.5130000 121.9750000
 142.8636870 127.6460422 121.9070128 143.4698325 126.7454892 122.8312661
 139.9390000 127.7180000 123.2730000 140.8671500 128.1960745 121.2679185
 141.0384998 126.4848257 121.7619032 143.1797786 128.6589699 122.1780657
 143.2318866 127.4130970 120.9044997 143.0352520 126.9303657 123.6868065
 142.8410000 125.0510000 128.7160000 140.7870000 126.1980000 127.6000000
 140.8979214 127.4311885 128.4949740 140.0228707 125.1128749 128.3447234
 145.4028790 124.5205784 126.0637728 144.8362276 124.6400000 127.4890000
 143.4190000 124.6400000 127.4890000 143.5400000 123.6680000 127.5200000
 143.0151057 124.0911082 128.2162381 142.6213487 124.9004789 129.7747628
 141.9324599 127.7963217 128.4517677 140.6403039 127.1425211 129.5190313
 140.2404407 128.2141457 128.1192770 140.4299448 124.1390218 128.0517150
 138.9675256 125.1672270 128.0700774 140.1525857 125.2735068 129.4186063
 145.0119904 125.3334292 125.4409391 146.4961579 124.5773141 126.0857570
 145.1853253 125.5697113 127.9473684 145.1817374 123.8194533 128.1265830
 143.1146078 125.5715210 127.4890000 144.3900000 122.2150000 127.6610000
 140.9090000 127.8350000 136.4580000 141.3470000 127.5130000 135.1400000
 142.8636870 127.6460422 135.0720128 143.4698325 126.7454892 135.9962661
 139.9390000 127.7180000 136.4380000 140.8671500 128.1960745 134.4329185
 141.0384998 126.4848257 134.9269032 143.1797786 128.6589699 135.3430657
 143.2318866 127.4130970 134.0694997 143.0352520 126.9303657 136.8518065
 142.8410000 125.0510000 141.8810000 140.7870000 126.1980000 140.7650000
 140.8979214 127.4311885 141.6599740 140.0228707 125.1128749 141.5097234
 145.4028790 124.5205784 139.2287728 144.8362276 124.6400000 140.6540000
 143.4190000 124.6400000 140.6540000 143.5400000 123.6680000 140.6850000
 143.0151057 124.0911082 141.3812381 142.6213487 124.9004789 142.9397628
 141.9324599 127.7963217 141.6167677 140.6403039 127.1425211 142.6840313
 140.2404407 128.2141457 141.2842770 140.4299448 124.1390218 141.2167150
 138.9675256 125.1672270 141.2350774 140.1525857 125.2735068 142.5836063
 145.0119904 125.3334292 138.6059391 146.4961579 124.5773141 139.2507570
 145.1853253 125.5697113 141.1123684 145.1817374 123.8194533 141.2915830
 143.1146078 125.5715210 140.6540000 144.3900000 122.2150000 140.8260000
 140.9090000 127.8350000 149.6230000 141.3470000 127.5130000 148.3050000
 142.8636870 127.6460422 148.2370128 143.4698325 126.7454892 149.1612661
 139.9390000 127.7180000 149.6030000 140.8671500 128.1960745 147.5979185
 141.0384998 126.4848257 148.0919032 143.1797786 128.6589699 148.5080657
 143.2318866 127.4130970 147.2344997 143.0352520 126.9303657 150.0168065
 142.8410000 125.0510000 155.0460000 140.7870000 126.1980000 153.9300000
 140.8979214 127.4311885 154.8249740 140.0228707 125.1128749 154.6747234
 145.4028790 124.5205784 152.3937728 144.8362276 124.6400000 153.8190000
 143.4190000 124.6400000 153.8190000 143.5400000 123.6680000 153.8500000
 143.0151057 124.0911082 154.5462381 142.6213487 124.9004789 156.1047628
 141.9324599 127.7963217 154.7817677 140.6403039 127.1425211 155.8490313
 140.2404407 128.2141457 154.4492770 140.4299448 124.1390218 154.3817150
 138.9675256 125.1672270 154.4000774 140.1525857 125.2735068 155.7486063
 145.0119904 125.3334292 151.7709391 146.4961579 124.5773141 152.4157570
 145.1853253 125.5697113 154.2773684 145.1817374 123.8194533 154.4565830
 143.1146078 125.5715210 153.8190000 144.3900000 122.2150000 153.9910000
 140.9090000 127.8350000 162.7880000 141.3470000 127.5130000 161.4700000
 142.8636870 127.6460422 161.4020128 143.4698325 126.7454892 162.3262661
 139.9390000 127.7180000 162.7680000 140.8671500 128.1960745 160.7629185
 141.0384998 126.4848257 161.2569032 143.1797786 128.6589699 161.6730657
 143.2318866 127.4130970 160.3994997 143.0352520 126.9303657 163.1818065
 142.8410000 125.0510000 168.2110000 140.7870000 126.1980000 167.0950000
 140.8979214 127.4311885 167.9899740 140.0228707 125.1128749 167.8397234
 145.4028790 124.5205784 165.5587728 144.8362276 124.6400000 166.9840000
 143.4190000 124.6400000 166.9840000 143.5400000 123.6680000 167.0150000
 143.0151057 124.0911082 167.7112381 142.6213487 124.9004789 169.2697628
 141.9324599 127.7963217 167.9467677 140.6403039 127.1425211 169.0140313
 140.2404407 128.2141457 167.6142770 140.4299448 124.1390218 167.5467150
 138.9675256 125.1672270 167.5650774 140.1525857 125.2735068 168.9136063
 145.0119904 125.3334292 164.9359391 146.4961579 124.5773141 165.5807570
 145.1853253 125.5697113 167.4423684 145.1817374 123.8194533 167.6215830
 143.1146078 125.5715210 166.9840000 144.3900000 122.2150000 167.1560000
 140.9090000 127.8350000 175.9530000 141.3470000 127.5130000 174.6350000
 142.8636870 127.6460422 174.5670128 143.4698325 126.7454892 175.4912661
 139.9390000 127.7180000 175.9330000 140.8671500 128.1960745 173.9279185
 141.0384998 126.4848257 174.4219032 143.1797786 128.6589699 174.8380657
 143.2318866 127.4130970 173.5644997 143.0352520 126.9303657 176.3468065
 142.8410000 125.0510000 181.3770000 140.7870000 126.1980000 180.2610000
 140.8979214 127.4311885 181.1559740 140.0228707 125.1128749 181.0057234
 145.4028790 124.5205784 178.7247728 144.8362276 124.6400000 180.1500000
 143.4190000 124.6400000 180.1500000 143.5400000 123.6680000 180.1810000
 143.0151057 124.0911082 180.8772381 142.6213487 124.9004789 182.4357628
 141.9324599 127.7963217 181.1127677 140.6403039 127.1425211 182.1800313
 140.2404407 128.2141457 180.7802770 140.4299448 124.1390218 180.7127150
 138.9675256 125.1672270 180.7310774 140.1525857 125.2735068 182.0796063
 145.0119904 125.3334292 178.1019391 146.4961579 124.5773141 178.7467570
 145.1853253 125.5697113 180.6083684 145.1817374 123.8194533 180.7875830
 143.1146078 125.5715210 180.1500000 144.3900000 122.2150000 180.3220000
 140.9090000 127.8350000 189.1190000 141.3470000 127.5130000 187.8010000
 142.8636870 127.6460422 187.7330128 143.4698325 126.7454892 188.6572661
 139.9390000 127.7180000 189.0990000 140.8671500 128.1960745 187.0939185
 141.0384998 126.4848257 187.5879032 143.1797786 128.6589699 188.0040657
 143.2318866 127.4130970 186.7304997 143.0352520 126.9303657 189.5128065
 142.8410000 125.0510000 194.5420000 140.7870000 126.1980000 193.4260000
 140.8979214 127.4311885 194.3209740 140.0228707 125.1128749 194.1707234
 145.4028790 124.5205784 191.8897728 144.8362276 124.6400000 193.3150000
 143.4190000 124.6400000 193.3150000 143.5400000 123.6680000 193.3460000
 143.0151057 124.0911082 194.0422381 142.6213487 124.9004789 195.6007628
 141.9324599 127.7963217 194.2777677 140.6403039 127.1425211 195.3450313
 140.2404407 128.2141457 193.9452770 140.4299448 124.1390218 193.8777150
 138.9675256 125.1672270 193.8960774 140.1525857 125.2735068 195.2446063
 145.0119904 125.3334292 191.2669391 146.4961579 124.5773141 191.9117570
 145.1853253 125.5697113 193.7733684 145.1817374 123.8194533 193.9525830
 143.1146078 125.5715210 193.3150000 144.3900000 122.2150000 193.4870000
 140.9090000 127.8350000 202.2840000 141.3470000 127.5130000 200.9660000
 142.8636870 127.6460422 200.8980128 143.4698325 126.7454892 201.8222661
 139.9390000 127.7180000 202.2640000 140.8671500 128.1960745 200.2589185
 141.0384998 126.4848257 200.7529032 143.1797786 128.6589699 201.1690657
 143.2318866 127.4130970 199.8954997 143.0352520 126.9303657 202.6778065
 142.8410000 132.3670000  76.0550000 140.7870000 133.5140000  74.9390000
 140.8979214 134.7471885  75.8339740 140.0228707 132.4288749  75.6837234
 145.4028790 131.8365784  73.4027728 144.8362276 131.9560000  74.8280000
 143.4190000 131.9560000  74.8280000 143.5400000 130.9840000  74.8590000
 143.0151057 131.4071082  75.5552381 142.6213487 132.2164789  77.1137628
 141.9324599 135.1123217  75.7907677 140.6403039 134.4585211  76.8580313
 140.2404407 135.5301457  75.4582770 140.4299448 131.4550218  75.3907150
 138.9675256 132.4832270  75.4090774 140.1525857 132.5895068  76.7576063
 145.0119904 132.6494292  72.7799391 146.4961579 131.8933141  73.4247570
 145.1853253 132.8857113  75.2863684 145.1817374 131.1354533  75.4655830
 143.1146078 132.8875210  74.8280000 144.3900000 129.5310000  75.0000000
 140.9090000 135.1510000  83.7970000 141.3470000 134.8290000  82.4790000
 142.8636870 134.9620422  82.4110128 143.4698325 134.0614892  83.3352661
 139.9390000 135.0340000  83.7770000 140.8671500 135.5120745  81.7719185
 141.0384998 133.8008257  82.2659032 143.1797786 135.9749699  82.6820657
 143.2318866 134.7290970  81.4084997 143.0352520 134.2463657  84.1908065
 142.8410000 132.3670000  89.2200000 140.7870000 133.5140000  88.1040000
 140.8979214 134.7471885  88.9989740 140.0228707 132.4288749  88.8487234
 145.4028790 131.8365784  86.5677728 144.8362276 131.9560000  87.9930000
 143.4190000 131.9560000  87.9930000 143.5400000 130.9840000  88.0240000
 143.0151057 131.4071082  88.7202381 142.6213487 132.2164789  90.2787628
 141.9324599 135.1123217  88.9557677 140.6403039 134.4585211  90.0230313
 140.2404407 135.5301457  88.6232770 140.4299448 131.4550218  88.5557150
 138.9675256 132.4832270  88.5740774 140.1525857 132.5895068  89.9226063
 145.0119904 132.6494292  85.9449391 146.4961579 131.8933141  86.5897570
 145.1853253 132.8857113  88.4513684 145.1817374 131.1354533  88.6305830
 143.1146078 132.8875210  87.9930000 144.3900000 129.5310000  88.1650000
 140.9090000 135.1510000  96.9620000 141.3470000 134.8290000  95.6440000
 142.8636870 134.9620422  95.5760128 143.4698325 134.0614892  96.5002661
 139.9390000 135.0340000  96.9420000 140.8671500 135.5120745  94.9369185
 141.0384998 133.8008257  95.4309032 143.1797786 135.9749699  95.8470657
 143.2318866 134.7290970  94.5734997 143.0352520 134.2463657  97.3558065
 142.8410000 132.3670000 102.3850000 140.7870000 133.5140000 101.2690000
 140.8979214 134.7471885 102.1639740 140.0228707 132.4288749 102.0137234
 145.4028790 131.8365784  99.7327728 144.8362276 131.9560000 101.1580000
 143.4190000 131.9560000 101.1580000 143.5400000 130.9840000 101.1890000
 143.0151057 131.4071082 101.8852381 142.6213487 132.2164789 103.4437628
 141.9324599 135.1123217 102.1207677 140.6403039 134.4585211 103.1880313
 140.2404407 135.5301457 101.7882770 140.4299448 131.4550218 101.7207150
 138.9675256 132.4832270 101.7390774 140.1525857 132.5895068 103.0876063
 145.0119904 132.6494292  99.1099391 146.4961579 131.8933141  99.7547570
 145.1853253 132.8857113 101.6163684 145.1817374 131.1354533 101.7955830
 143.1146078 132.8875210 101.1580000 144.3900000 129.5310000 101.3300000
 140.9090000 135.1510000 110.1270000 141.3470000 134.8290000 108.8090000
 142.8636870 134.9620422 108.7410128 143.4698325 134.0614892 109.6652661
 139.9390000 135.0340000 110.1070000 140.8671500 135.5120745 108.1019185
 141.0384998 133.8008257 108.5959032 143.1797786 135.9749699 109.0120657
 143.2318866 134.7290970 107.7384997 143.0352520 134.2463657 110.5208065
 142.8410000 132.3670000 115.5510000 140.7870000 133.5140000 114.4350000
 140.8979214 134.7471885 115.3299740 140.0228707 132.4288749 115.1797234
 145.4028790 131.8365784 112.8987728 144.8362276 131.9560000 114.3240000
 143.4190000 131.9560000 114.3240000 143.5400000 130.9840000 114.3550000
 143.0151057 131.4071082 115.0512381 142.6213487 132.2164789 116.6097628
 141.9324599 135.1123217 115.2867677 140.6403039 134.4585211 116.3540313
 140.2404407 135.5301457 114.9542770 140.4299448 131.4550218 114.8867150
 138.9675256 132.4832270 114.9050774 140.1525857 132.5895068 116.2536063
 145.0119904 132.6494292 112.2759391 146.4961579 131.8933141 112.9207570
 145.1853253 132.8857113 114.7823684 145.1817374 131.1354533 114.9615830
 143.1146078 132.8875210 114.3240000 144.3900000 129.5310000 114.4960000
 140.9090000 135.1510000 123.2930000 141.3470000 134.8290000 121.9750000
 142.8636870 134.9620422 121.9070128 143.4698325 134.0614892 122.8312661
 139.9390000 135.0340000 123.2730000 140.8671500 135.5120745 121.2679185
 141.0384998 133.8008257 121.7619032 143.1797786 135.9749699 122.1780657
 143.2318866 134.7290970 120.9044997 143.0352520 134.2463657 123.6868065
 142.8410000 132.3670000 128.7160000 140.7870000 133.5140000 127.6000000
 140.8979214 134.7471885 128.4949740 140.0228707 132.4288749 128.3447234
 145.4028790 131.8365784 126.0637728 144.8362276 131.9560000 127.4890000
 143.4190000 131.9560000 127.4890000 143.5400000 130.9840000 127.5200000
 143.0151057 131.4071082 128.2162381 142.6213487 132.2164789 129.7747628
 141.9324599 135.1123217 128.4517677 140.6403039 134.4585211 129.5190313
 140.2404407 135.5301457 128.1192770 140.4299448 131.4550218 128.0517150
 138.9675256 132.4832270 128.0700774 140.1525857 132.5895068 129.4186063
 145.0119904 132.6494292 125.4409391 146.4961579 131.8933141 126.0857570
 145.1853253 132.8857113 127.9473684 145.1817374 131.1354533 128.1265830
 143.1146078 132.8875210 127.4890000 144.3900000 129.5310000 127.6610000
 140.9090000 135.1510000 136.4580000 141.3470000 134.8290000 135.1400000
 142.8636870 134.9620422 135.0720128 143.4698325 134.0614892 135.9962661
 139.9390000 135.0340000 136.4380000 140.8671500 135.5120745 134.4329185
 141.0384998 133.8008257 134.9269032 143.1797786 135.9749699 135.3430657
 143.2318866 134.7290970 134.0694997 143.0352520 134.2463657 136.8518065
 142.8410000 132.3670000 141.8810000 140.7870000 133.5140000 140.7650000
 140.8979214 134.7471885 141.6599740 140.0228707 132.4288749 141.5097234
 145.4028790 131.8365784 139.2287728 144.8362276 131.9560000 140.6540000
 143.4190000 131.9560000 140.6540000 143.5400000 130.9840000 140.6850000
 143.0151057 131.4071082 141.3812381 142.6213487 132.2164789 142.9397628
 141.9324599 135.1123217 141.6167677 140.6403039 134.4585211 142.6840313
 140.2404407 135.5301457 141.2842770 140.4299448 131.4550218 141.2167150
 138.9675256 132.4832270 141.2350774 140.1525857 132.5895068 142.5836063
 145.0119904 132.6494292 138.6059391 146.4961579 131.8933141 139.2507570
 145.1853253 132.8857113 141.1123684 145.1817374 131.1354533 141.2915830
 143.1146078 132.8875210 140.6540000 144.3900000 129.5310000 140.8260000
 140.9090000 135.1510000 149.6230000 141.3470000 134.8290000 148.3050000
 142.8636870 134.9620422 148.2370128 143.4698325 134.0614892 149.1612661
 139.9390000 135.0340000 149.6030000 140.8671500 135.5120745 147.5979185
 141.0384998 133.8008257 148.0919032 143.1797786 135.9749699 148.5080657
 143.2318866 134.7290970 147.2344997 143.0352520 134.2463657 150.0168065
 142.8410000 132.3670000 155.0460000 140.7870000 133.5140000 153.9300000
 140.8979214 134.7471885 154.8249740 140.0228707 132.4288749 154.6747234
 145.4028790 131.8365784 152.3937728 144.8362276 131.9560000 153.8190000
 143.4190000 131.9560000 153.8190000 143.5400000 130.9840000 153.8500000
 143.0151057 131.4071082 154.5462381 142.6213487 132.2164789 156.1047628
 141.9324599 135.1123217 154.7817677 140.6403039 134.4585211 155.8490313
 140.2404407 135.5301457 154.4492770 140.4299448 131.4550218 154.3817150
 138.9675256 132.4832270 154.4000774 140.1525857 132.5895068 155.7486063
 145.0119904 132.6494292 151.7709391 146.4961579 131.8933141 152.4157570
 145.1853253 132.8857113 154.2773684 145.1817374 131.1354533 154.4565830
 143.1146078 132.8875210 153.8190000 144.3900000 129.5310000 153.9910000
 140.9090000 135.1510000 162.7880000 141.3470000 134.8290000 161.4700000
 142.8636870 134.9620422 161.4020128 143.4698325 134.0614892 162.3262661
 139.9390000 135.0340000 162.7680000 140.8671500 135.5120745 160.7629185
 141.0384998 133.8008257 161.2569032 143.1797786 135.9749699 161.6730657
 143.2318866 134.7290970 160.3994997 143.0352520 134.2463657 163.1818065
 142.8410000 132.3670000 168.2110000 140.7870000 133.5140000 167.0950000
 140.8979214 134.7471885 167.9899740 140.0228707 132.4288749 167.8397234
 145.4028790 131.8365784 165.5587728 144.8362276 131.9560000 166.9840000
 143.4190000 131.9560000 166.9840000 143.5400000 130.9840000 167.0150000
 143.0151057 131.4071082 167.7112381 142.6213487 132.2164789 169.2697628
 141.9324599 135.1123217 167.9467677 140.6403039 134.4585211 169.0140313
 140.2404407 135.5301457 167.6142770 140.4299448 131.4550218 167.5467150
 138.9675256 132.4832270 167.5650774 140.1525857 132.5895068 168.9136063
 145.0119904 132.6494292 164.9359391 146.4961579 131.8933141 165.5807570
 145.1853253 132.8857113 167.4423684 145.1817374 131.1354533 167.6215830
 143.1146078 132.8875210 166.9840000 144.3900000 129.5310000 167.1560000
 140.9090000 135.1510000 175.9530000 141.3470000 134.8290000 174.6350000
 142.8636870 134.9620422 174.5670128 143.4698325 134.0614892 175.4912661
 139.9390000 135.0340000 175.9330000 140.8671500 135.5120745 173.9279185
 141.0384998 133.8008257 174.4219032 143.1797786 135.9749699 174.8380657
 143.2318866 134.7290970 173.5644997 143.0352520 134.2463657 176.3468065
 142.8410000 132.3670000 181.3770000 140.7870000 133.5140000 180.2610000
 140.8979214 134.7471885 181.1559740 140.0228707 132.4288749 181.0057234
 145.4028790 131.8365784 178.7247728 144.8362276 131.9560000 180.1500000
 143.4190000 131.9560000 180.1500000 143.5400000 130.9840000 180.1810000
 143.0151057 131.4071082 180.8772381 142.6213487 132.2164789 182.4357628
 141.9324599 135.1123217 181.1127677 140.6403039 134.4585211 182.1800313
 140.2404407 135.5301457 180.7802770 140.4299448 131.4550218 180.7127150
 138.9675256 132.4832270 180.7310774 140.1525857 132.5895068 182.0796063
 145.0119904 132.6494292 178.1019391 146.4961579 131.8933141 178.7467570
 145.1853253 132.8857113 180.6083684 145.1817374 131.1354533 180.7875830
 143.1146078 132.8875210 180.1500000 144.3900000 129.5310000 180.3220000
 140.9090000 135.1510000 189.1190000 141.3470000 134.8290000 187.8010000
 142.8636870 134.9620422 187.7330128 143.4698325 134.0614892 188.6572661
 139.9390000 135.0340000 189.0990000 140.8671500 135.5120745 187.0939185
 141.0384998 133.8008257 187.5879032 143.1797786 135.9749699 188.0040657
 143.2318866 134.7290970 186.7304997 143.0352520 134.2463657 189.5128065
 142.8410000 132.3670000 194.5420000 140.7870000 133.5140000 193.4260000
 140.8979214 134.7471885 194.3209740 140.0228707 132.4288749 194.1707234
 145.4028790 131.8365784 191.8897728 144.8362276 131.9560000 193.3150000
 143.4190000 131.9560000 193.3150000 143.5400000 130.9840000 193.3460000
 143.0151057 131.4071082 194.0422381 142.6213487 132.2164789 195.6007628
 141.9324599 135.1123217 194.2777677 140.6403039 134.4585211 195.3450313
 140.2404407 135.5301457 193.9452770 140.4299448 131.4550218 193.8777150
 138.9675256 132.4832270 193.8960774 140.1525857 132.5895068 195.2446063
 145.0119904 132.6494292 191.2669391 146.4961579 131.8933141 191.9117570
 145.1853253 132.8857113 193.7733684 145.1817374 131.1354533 193.9525830
 143.1146078 132.8875210 193.3150000 144.3900000 129.5310000 193.4870000
 140.9090000 135.1510000 202.2840000 141.3470000 134.8290000 200.9660000
 142.8636870 134.9620422 200.8980128 143.4698325 134.0614892 201.8222661
 139.9390000 135.0340000 202.2640000 140.8671500 135.5120745 200.2589185
 141.0384998 133.8008257 200.7529032 143.1797786 135.9749699 201.1690657
 143.2318866 134.7290970 199.8954997 143.0352520 134.2463657 202.6778065
 142.8410000 139.6840000  76.0550000 140.7870000 140.8310000  74.9390000
 140.8979214 142.0641885  75.8339740 140.0228707 139.7458749  75.6837234
 145.4028790 139.1535784  73.4027728 144.8362276 139.2730000  74.8280000
 143.4190000 139.2730000  74.8280000 143.5400000 138.3010000  74.8590000
 143.0151057 138.7241082  75.5552381 142.6213487 139.5334789  77.1137628
 141.9324599 142.4293217  75.7907677 140.6403039 141.7755211  76.8580313
 140.2404407 142.8471457  75.4582770 140.4299448 138.7720218  75.3907150
 138.9675256 139.8002270  75.4090774 140.1525857 139.9065068  76.7576063
 145.0119904 139.9664292  72.7799391 146.4961579 139.2103141  73.4247570
 145.1853253 140.2027113  75.2863684 145.1817374 138.4524533  75.4655830
 143.1146078 140.2045210  74.8280000 144.3900000 136.8480000  75.0000000
 140.9090000 142.4680000  83.7970000 141.3470000 142.1460000  82.4790000
 142.8636870 142.2790422  82.4110128 143.4698325 141.3784892  83.3352661
 139.9390000 142.3510000  83.7770000 140.8671500 142.8290745  81.7719185
 141.0384998 141.1178257  82.2659032 143.1797786 143.2919699  82.6820657
 143.2318866 142.0460970  81.4084997 143.0352520 141.5633657  84.1908065
 142.8410000 139.6840000  89.2200000 140.7870000 140.8310000  88.1040000
 140.8979214 142.0641885  88.9989740 140.0228707 139.7458749  88.8487234
 145.4028790 139.1535784  86.5677728 144.8362276 139.2730000  87.9930000
 143.4190000 139.2730000  87.9930000 143.5400000 138.3010000  88.0240000
 143.0151057 138.7241082  88.7202381 142.6213487 139.5334789  90.2787628
 141.9324599 142.4293217  88.9557677 140.6403039 141.7755211  90.0230313
 140.2404407 142.8471457  88.6232770 140.4299448 138.7720218  88.5557150
 138.9675256 139.8002270  88.5740774 140.1525857 139.9065068  89.9226063
 145.0119904 139.9664292  85.9449391 146.4961579 139.2103141  86.5897570
 145.1853253 140.2027113  88.4513684 145.1817374 138.4524533  88.6305830
 143.1146078 140.2045210  87.9930000 144.3900000 136.8480000  88.1650000
 140.9090000 142.4680000  96.9620000 141.3470000 142.1460000  95.6440000
 142.8636870 142.2790422  95.5760128 143.4698325 141.3784892  96.5002661
 139.9390000 142.3510000  96.9420000 140.8671500 142.8290745  94.9369185
 141.0384998 141.1178257  95.4309032 143.1797786 143.2919699  95.8470657
 143.2318866 142.0460970  94.5734997 143.0352520 141.5633657  97.3558065
 142.8410000 139.6840000 102.3850000 140.7870000 140.8310000 101.2690000
 140.8979214 142.0641885 102.1639740 140.0228707 139.7458749 102.0137234
 145.4028790 139.1535784  99.7327728 144.8362276 139.2730000 101.1580000
 143.4190000 139.2730000 101.1580000 143.5400000 138.3010000 101.1890000
 143.0151057 138.7241082 101.8852381 142.6213487 139.5334789 103.4437628
 141.9324599 142.4293217 102.1207677 140.6403039 141.7755211 103.1880313
 140.2404407 142.8471457 101.7882770 140.4299448 138.7720218 101.7207150
 138.9675256 139.8002270 101.7390774 140.1525857 139.9065068 103.0876063
 145.0119904 139.9664292  99.1099391 146.4961579 139.2103141  99.7547570
 145.1853253 140.2027113 101.6163684 145.1817374 138.4524533 101.7955830
 143.1146078 140.2045210 101.1580000 144.3900000 136.8480000 101.3300000
 140.9090000 142.4680000 110.1270000 141.3470000 142.1460000 108.8090000
 142.8636870 142.2790422 108.7410128 143.4698325 141.3784892 109.6652661
 139.9390000 142.3510000 110.1070000 140.8671500 142.8290745 108.1019185
 141.0384998 141.1178257 108.5959032 143.1797786 143.2919699 109.0120657
 143.2318866 142.0460970 107.7384997 143.0352520 141.5633657 110.5208065
 142.8410000 139.6840000 115.5510000 140.7870000 140.8310000 114.4350000
 140.8979214 142.0641885 115.3299740 140.0228707 139.7458749 115.1797234
 145.4028790 139.1535784 112.8987728 144.8362276 139.2730000 114.3240000
 143.4190000 139.2730000 114.3240000 143.5400000 138.3010000 114.3550000
 143.0151057 138.7241082 115.0512381 142.6213487 139.5334789 116.6097628
 141.9324599 142.4293217 115.2867677 140.6403039 141.7755211 116.3540313
 140.2404407 142.8471457 114.9542770 140.4299448 138.7720218 114.8867150
 138.9675256 139.8002270 114.9050774 140.1525857 139.9065068 116.2536063
 145.0119904 139.9664292 112.2759391 146.4961579 139.2103141 112.9207570
 145.1853253 140.2027113 114.7823684 145.1817374 138.4524533 114.9615830
 143.1146078 140.2045210 114.3240000 144.3900000 136.8480000 114.4960000
 140.9090000 142.4680000 123.2930000 141.3470000 142.1460000 121.9750000
 142.8636870 142.2790422 121.9070128 143.4698325 141.3784892 122.8312661
 139.9390000 142.3510000 123.2730000 140.8671500 142.8290745 121.2679185
 141.0384998 141.1178257 121.7619032 143.1797786 143.2919699 122.1780657
 143.2318866 142.0460970 120.9044997 143.0352520 141.5633657 123.6868065
 142.8410000 139.6840000 128.7160000 140.7870000 140.8310000 127.6000000
 140.8979214 142.0641885 128.4949740 140.0228707 139.7458749 128.3447234
 145.4028790 139.1535784 126.0637728 144.8362276 139.2730000 127.4890000
 143.4190000 139.2730000 127.4890000 143.5400000 138.3010000 127.5200000
 143.0151057 138.7241082 128.2162381 142.6213487 139.5334789 129.7747628
 141.9324599 142.4293217 128.4517677 140.6403039 141.7755211 129.5190313
 140.2404407 142.8471457 128.1192770 140.4299448 138.7720218 128.0517150
 138.9675256 139.8002270 128.0700774 140.1525857 139.9065068 129.4186063
 145.0119904 139.9664292 125.4409391 146.4961579 139.2103141 126.0857570
 145.1853253 140.2027113 127.9473684 145.1817374 138.4524533 128.1265830
 143.1146078 140.2045210 127.4890000 144.3900000 136.8480000 127.6610000
 140.9090000 142.4680000 136.4580000 141.3470000 142.1460000 135.1400000
 142.8636870 142.2790422 135.0720128 143.4698325 141.3784892 135.9962661
 139.9390000 142.3510000 136.4380000 140.8671500 142.8290745 134.4329185
 141.0384998 141.1178257 134.9269032 143.1797786 143.2919699 135.3430657
 143.2318866 142.0460970 134.0694997 143.0352520 141.5633657 136.8518065
 142.8410000 139.6840000 141.8810000 140.7870000 140.8310000 140.7650000
 140.8979214 142.0641885 141.6599740 140.0228707 139.7458749 141.5097234
 145.4028790 139.1535784 139.2287728 144.8362276 139.2730000 140.6540000
 143.4190000 139.2730000 140.6540000 143.5400000 138.3010000 140.6850000
 143.0151057 138.7241082 141.3812381 142.6213487 139.5334789 142.9397628
 141.9324599 142.4293217 141.6167677 140.6403039 141.7755211 142.6840313
 140.2404407 142.8471457 141.2842770 140.4299448 138.7720218 141.2167150
 138.9675256 139.8002270 141.2350774 140.1525857 139.9065068 142.5836063
 145.0119904 139.9664292 138.6059391 146.4961579 139.2103141 139.2507570
 145.1853253 140.2027113 141.1123684 145.1817374 138.4524533 141.2915830
 143.1146078 140.2045210 140.6540000 144.3900000 136.8480000 140.8260000
 140.9090000 142.4680000 149.6230000 141.3470000 142.1460000 148.3050000
 142.8636870 142.2790422 148.2370128 143.4698325 141.3784892 149.1612661
 139.9390000 142.3510000 149.6030000 140.8671500 142.8290745 147.5979185
 141.0384998 141.1178257 148.0919032 143.1797786 143.2919699 148.5080657
 143.2318866 142.0460970 147.2344997 143.0352520 141.5633657 150.0168065
 142.8410000 139.6840000 155.0460000 140.7870000 140.8310000 153.9300000
 140.8979214 142.0641885 154.8249740 140.0228707 139.7458749 154.6747234
 145.4028790 139.1535784 152.3937728 144.8362276 139.2730000 153.8190000
 143.4190000 139.2730000 153.8190000 143.5400000 138.3010000 153.8500000
 143.0151057 138.7241082 154.5462381 142.6213487 139.5334789 156.1047628
 141.9324599 142.4293217 154.7817677 140.6403039 141.7755211 155.8490313
 140.2404407 142.8471457 154.4492770 140.4299448 138.7720218 154.3817150
 138.9675256 139.8002270 154.4000774 140.1525857 139.9065068 155.7486063
 145.0119904 139.9664292 151.7709391 146.4961579 139.2103141 152.4157570
 145.1853253 140.2027113 154.2773684 145.1817374 138.4524533 154.4565830
 143.1146078 140.2045210 153.8190000 144.3900000 136.8480000 153.9910000
 140.9090000 142.4680000 162.7880000 141.3470000 142.1460000 161.4700000
 142.8636870 142.2790422 161.4020128 143.4698325 141.3784892 162.3262661
 139.9390000 142.3510000 162.7680000 140.8671500 142.8290745 160.7629185
 141.0384998 141.1178257 161.2569032 143.1797786 143.2919699 161.6730657
 143.2318866 142.0460970 160.3994997 143.0352520 141.5633657 163.1818065
 142.8410000 139.6840000 168.2110000 140.7870000 140.8310000 167.0950000
 140.8979214 142.0641885 167.9899740 140.0228707 139.7458749 167.8397234
 145.4028790 139.1535784 165.5587728 144.8362276 139.2730000 166.9840000
 143.4190000 139.2730000 166.9840000 143.5400000 138.3010000 167.0150000
 143.0151057 138.7241082 167.7112381 142.6213487 139.5334789 169.2697628
 141.9324599 142.4293217 167.9467677 140.6403039 141.7755211 169.0140313
 140.2404407 142.8471457 167.6142770 140.4299448 138.7720218 167.5467150
 138.9675256 139.8002270 167.5650774 140.1525857 139.9065068 168.9136063
 145.0119904 139.9664292 164.9359391 146.4961579 139.2103141 165.5807570
 145.1853253 140.2027113 167.4423684 145.1817374 138.4524533 167.6215830
 143.1146078 140.2045210 166.9840000 144.3900000 136.8480000 167.1560000
 140.9090000 142.4680000 175.9530000 141.3470000 142.1460000 174.6350000
 142.8636870 142.2790422 174.5670128 143.4698325 141.3784892 175.4912661
 139.9390000 142.3510000 175.9330000 140.8671500 142.8290745 173.9279185
 141.0384998 141.1178257 174.4219032 143.1797786 143.2919699 174.8380657
 143.2318866 142.0460970 173.5644997 143.0352520 141.5633657 176.3468065
 142.8410000 139.6840000 181.3770000 140.7870000 140.8310000 180.2610000
 140.8979214 142.0641885 181.1559740 140.0228707 139.7458749 181.0057234
 145.4028790 139.1535784 178.7247728 144.8362276 139.2730000 180.1500000
 143.4190000 139.2730000 180.1500000 143.5400000 138.3010000 180.1810000
 143.0151057 138.7241082 180.8772381 142.6213487 139.5334789 182.4357628
 141.9324599 142.4293217 181.1127677 140.6403039 141.7755211 182.1800313
 140.2404407 142.8471457 180.7802770 140.4299448 138.7720218 180.7127150
 138.9675256 139.8002270 180.7310774 140.1525857 139.9065068 182.0796063
 145.0119904 139.9664292 178.1019391 146.4961579 139.2103141 178.7467570
 145.1853253 140.2027113 180.6083684 145.1817374 138.4524533 180.7875830
 143.1146078 140.2045210 180.1500000 144.3900000 136.8480000 180.3220000
 140.9090000 142.4680000 189.1190000 141.3470000 142.1460000 187.8010000
 142.8636870 142.2790422 187.7330128 143.4698325 141.3784892 188.6572661
 139.9390000 142.3510000 189.0990000 140.8671500 142.8290745 187.0939185
 141.0384998 141.1178257 187.5879032 143.1797786 143.2919699 188.0040657
 143.2318866 142.0460970 186.7304997 143.0352520 141.5633657 189.5128065
 142.8410000 139.6840000 194.5420000 140.7870000 140.8310000 193.4260000
 140.8979214 142.0641885 194.3209740 140.0228707 139.7458749 194.1707234
 145.4028790 139.1535784 191.8897728 144.8362276 139.2730000 193.3150000
 143.4190000 139.2730000 193.3150000 143.5400000 138.3010000 193.3460000
 143.0151057 138.7241082 194.0422381 142.6213487 139.5334789 195.6007628
 141.9324599 142.4293217 194.2777677 140.6403039 141.7755211 195.3450313
 140.2404407 142.8471457 193.9452770 140.4299448 138.7720218 193.8777150
 138.9675256 139.8002270 193.8960774 140.1525857 139.9065068 195.2446063
 145.0119904 139.9664292 191.2669391 146.4961579 139.2103141 191.9117570
 145.1853253 140.2027113 193.7733684 145.1817374 138.4524533 193.9525830
 143.1146078 140.2045210 193.3150000 144.3900000 136.8480000 193.4870000
 140.9090000 142.4680000 202.2840000 141.3470000 142.1460000 200.9660000
 142.8636870 142.2790422 200.8980128 143.4698325 141.3784892 201.8222661
 139.9390000 142.3510000 202.2640000 140.8671500 142.8290745 200.2589185
 141.0384998 141.1178257 200.7529032 143.1797786 143.2919699 201.1690657
 143.2318866 142.0460970 199.8954997 143.0352520 141.5633657 202.6778065
 155.5190000  73.8360000  76.0550000 153.4650000  74.9830000  74.9390000
 153.5759214  76.2161885  75.8339740 152.7008707  73.8978749  75.6837234
 158.0808790  73.3055784  73.4027728 157.5142276  73.4250000  74.8280000
 156.0970000  73.4250000  74.8280000 156.2180000  72.4530000  74.8590000
 155.6931057  72.8761082  75.5552381 155.2993487  73.6854789  77.1137628
 154.6104599  76.5813217  75.7907677 153.3183039  75.9275211  76.8580313
 152.9184407  76.9991457  75.4582770 153.1079448  72.9240218  75.3907150
 151.6455256  73.9522270  75.4090774 152.8305857  74.0585068  76.7576063
 157.6899904  74.1184292  72.7799391 159.1741579  73.3623141  73.4247570
 157.8633253  74.3547113  75.2863684 157.8597374  72.6044533  75.4655830
 155.7926078  74.3565210  74.8280000 157.0680000  71.0000000  75.0000000
 153.5870000  76.6200000  83.7970000 154.0250000  76.2980000  82.4790000
 155.5416870  76.4310422  82.4110128 156.1478325  75.5304892  83.3352661
 152.6170000  76.5030000  83.7770000 153.5451500  76.9810745  81.7719185
 153.7164998  75.2698257  82.2659032 155.8577786  77.4439699  82.6820657
 155.9098866  76.1980970  81.4084997 155.7132520  75.7153657  84.1908065
 155.5190000  73.8360000  89.2200000 153.4650000  74.9830000  88.1040000
 153.5759214  76.2161885  88.9989740 152.7008707  73.8978749  88.8487234
 158.0808790  73.3055784  86.5677728 157.5142276  73.4250000  87.9930000
 156.0970000  73.4250000  87.9930000 156.2180000  72.4530000  88.0240000
 155.6931057  72.8761082  88.7202381 155.2993487  73.6854789  90.2787628
 154.6104599  76.5813217  88.9557677 153.3183039  75.9275211  90.0230313
 152.9184407  76.9991457  88.6232770 153.1079448  72.9240218  88.5557150
 151.6455256  73.9522270  88.5740774 152.8305857  74.0585068  89.9226063
 157.6899904  74.1184292  85.9449391 159.1741579  73.3623141  86.5897570
 157.8633253  74.3547113  88.4513684 157.8597374  72.6044533  88.6305830
 155.7926078  74.3565210  87.9930000 157.0680000  71.0000000  88.1650000
 153.5870000  76.6200000  96.9620000 154.0250000  76.2980000  95.6440000
 155.5416870  76.4310422  95.5760128 156.1478325  75.5304892  96.5002661
 152.6170000  76.5030000  96.9420000 153.5451500  76.9810745  94.9369185
 153.7164998  75.2698257  95.4309032 155.8577786  77.4439699  95.8470657
 155.9098866  76.1980970  94.5734997 155.7132520  75.7153657  97.3558065
 155.5190000  73.8360000 102.3850000 153.4650000  74.9830000 101.2690000
 153.5759214  76.2161885 102.1639740 152.7008707  73.8978749 102.0137234
 158.0808790  73.3055784  99.7327728 157.5142276  73.4250000 101.1580000
 156.0970000  73.4250000 101.1580000 156.2180000  72.4530000 101.1890000
 155.6931057  72.8761082 101.8852381 155.2993487  73.6854789 103.4437628
 154.6104599  76.5813217 102.1207677 153.3183039  75.9275211 103.1880313
 152.9184407  76.9991457 101.7882770 153.1079448  72.9240218 101.7207150
 151.6455256  73.9522270 101.7390774 152.8305857  74.0585068 103.0876063
 157.6899904  74.1184292  99.1099391 159.1741579  73.3623141  99.7547570
 157.8633253  74.3547113 101.6163684 157.8597374  72.6044533 101.7955830
 155.7926078  74.3565210 101.1580000 157.0680000  71.0000000 101.3300000
 153.5870000  76.6200000 110.1270000 154.0250000  76.2980000 108.8090000
 155.5416870  76.4310422 108.7410128 156.1478325  75.5304892 109.6652661
 152.6170000  76.5030000 110.1070000 153.5451500  76.9810745 108.1019185
 153.7164998  75.2698257 108.5959032 155.8577786  77.4439699 109.0120657
 155.9098866  76.1980970 107.7384997 155.7132520  75.7153657 110.5208065
 155.5190000  73.8360000 115.5510000 153.4650000  74.9830000 114.4350000
 153.5759214  76.2161885 115.3299740 152.7008707  73.8978749 115.1797234
 158.0808790  73.3055784 112.8987728 157.5142276  73.4250000 114.3240000
 156.0970000  73.4250000 114.3240000 156.2180000  72.4530000 114.3550000
 155.6931057  72.8761082 115.0512381 155.2993487  73.6854789 116.6097628
 154.6104599  76.5813217 115.2867677 153.3183039  75.9275211 116.3540313
 152.9184407  76.9991457 114.9542770 153.1079448  72.9240218 114.8867150
 151.6455256  73.9522270 114.9050774 152.8305857  74.0585068 116.2536063
 157.6899904  74.1184292 112.2759391 159.1741579  73.3623141 112.9207570
 157.8633253  74.3547113 114.7823684 157.8597374  72.6044533 114.9615830
 155.7926078  74.3565210 114.3240000 157.0680000  71.0000000 114.4960000
 153.5870000  76.6200000 123.2930000 154.0250000  76.2980000 121.9750000
 155.5416870  76.4310422 121.9070128 156.1478325  75.5304892 122.8312661
 152.6170000  76.5030000 123.2730000 153.5451500  76.9810745 121.2679185
 153.7164998  75.2698257 121.7619032 155.8577786  77.4439699 122.1780657
 155.9098866  76.1980970 120.9044997 155.7132520  75.7153657 123.6868065
 155.5190000  73.8360000 128.7160000 153.4650000  74.9830000 127.6000000
 153.5759214  76.2161885 128.4949740 152.7008707  73.8978749 128.3447234
 158.0808790  73.3055784 126.0637728 157.5142276  73.4250000 127.4890000
 156.0970000  73.4250000 127.4890000 156.2180000  72.4530000 127.5200000
 155.6931057  72.8761082 128.2162381 155.2993487  73.6854789 129.7747628
 154.6104599  76.5813217 128.4517677 153.3183039  75.9275211 129.5190313
 152.9184407  76.9991457 128.1192770 153.1079448  72.9240218 128.0517150
 151.6455256  73.9522270 128.0700774 152.8305857  74.0585068 129.4186063
 157.6899904  74.1184292 125.4409391 159.1741579  73.3623141 126.0857570
 157.8633253  74.3547113 127.9473684 157.8597374  72.6044533 128.1265830
 155.7926078  74.3565210 127.4890000 157.0680000  71.0000000 127.6610000
 153.5870000  76.6200000 136.4580000 154.0250000  76.2980000 135.1400000
 155.5416870  76.4310422 135.0720128 156.1478325  75.5304892 135.9962661
 152.6170000  76.5030000 136.4380000 153.5451500  76.9810745 134.4329185
 153.7164998  75.2698257 134.9269032 155.8577786  77.4439699 135.3430657
 155.9098866  76.1980970 134.0694997 155.7132520  75.7153657 136.8518065
 155.5190000  73.8360000 141.8810000 153.4650000  74.9830000 140.7650000
 153.5759214  76.2161885 141.6599740 152.7008707  73.8978749 141.5097234
 158.0808790  73.3055784 139.2287728 157.5142276  73.4250000 140.6540000
 156.0970000  73.4250000 140.6540000 156.2180000  72.4530000 140.6850000
 155.6931057  72.8761082 141.3812381 155.2993487  73.6854789 142.9397628
 154.6104599  76.5813217 141.6167677 153.3183039  75.9275211 142.6840313
 152.9184407  76.9991457 141.2842770 153.1079448  72.9240218 141.2167150
 151.6455256  73.9522270 141.2350774 152.8305857  74.0585068 142.5836063
 157.6899904  74.1184292 138.6059391 159.1741579  73.3623141 139.2507570
 157.8633253  74.3547113 141.1123684 157.8597374  72.6044533 141.2915830
 155.7926078  74.3565210 140.6540000 157.0680000  71.0000000 140.8260000
 153.5870000  76.6200000 149.6230000 154.0250000  76.2980000 148.3050000
 155.5416870  76.4310422 148.2370128 156.1478325  75.5304892 149.1612661
 152.6170000  76.5030000 149.6030000 153.5451500  76.9810745 147.5979185
 153.7164998  75.2698257 148.0919032 155.8577786  77.4439699 148.5080657
 155.9098866  76.1980970 147.2344997 155.7132520  75.7153657 150.0168065
 155.5190000  73.8360000 155.0460000 153.4650000  74.9830000 153.9300000
 153.5759214  76.2161885 154.8249740 152.7008707  73.8978749 154.6747234
 158.0808790  73.3055784 152.3937728 157.5142276  73.4250000 153.8190000
 156.0970000  73.4250000 153.8190000 156.2180000  72.4530000 153.8500000
 155.6931057  72.8761082 154.5462381 155.2993487  73.6854789 156.1047628
 154.6104599  76.5813217 154.7817677 153.3183039  75.9275211 155.8490313
 152.9184407  76.9991457 154.4492770 153.1079448  72.9240218 154.3817150
 151.6455256  73.9522270 154.4000774 152.8305857  74.0585068 155.7486063
 157.6899904  74.1184292 151.7709391 159.1741579  73.3623141 152.4157570
 157.8633253  74.3547113 154.2773684 157.8597374  72.6044533 154.4565830
 155.7926078  74.3565210 153.8190000 157.0680000  71.0000000 153.9910000
 153.5870000  76.6200000 162.7880000 154.0250000  76.2980000 161.4700000
 155.5416870  76.4310422 161.4020128 156.1478325  75.5304892 162.3262661
 152.6170000  76.5030000 162.7680000 153.5451500  76.9810745 160.7629185
 153.7164998  75.2698257 161.2569032 155.8577786  77.4439699 161.6730657
 155.9098866  76.1980970 160.3994997 155.7132520  75.7153657 163.1818065
 155.5190000  73.8360000 168.2110000 153.4650000  74.9830000 167.0950000
 153.5759214  76.2161885 167.9899740 152.7008707  73.8978749 167.8397234
 158.0808790  73.3055784 165.5587728 157.5142276  73.4250000 166.9840000
 156.0970000  73.4250000 166.9840000 156.2180000  72.4530000 167.0150000
 155.6931057  72.8761082 167.7112381 155.2993487  73.6854789 169.2697628
 154.6104599  76.5813217 167.9467677 153.3183039  75.9275211 169.0140313
 152.9184407  76.9991457 167.6142770 153.1079448  72.9240218 167.5467150
 151.6455256  73.9522270 167.5650774 152.8305857  74.0585068 168.9136063
 157.6899904  74.1184292 164.9359391 159.1741579  73.3623141 165.5807570
 157.8633253  74.3547113 167.4423684 157.8597374  72.6044533 167.6215830
 155.7926078  74.3565210 166.9840000 157.0680000  71.0000000 167.1560000
 153.5870000  76.6200000 175.9530000 154.0250000  76.2980000 174.6350000
 155.5416870  76.4310422 174.5670128 156.1478325  75.5304892 175.4912661
 152.6170000  76.5030000 175.9330000 153.5451500  76.9810745 173.9279185
 153.7164998  75.2698257 174.4219032 155.8577786  77.4439699 174.8380657
 155.9098866  76.1980970 173.5644997 155.7132520  75.7153657 176.3468065
 155.5190000  73.8360000 181.3770000 153.4650000  74.9830000 180.2610000
 153.5759214  76.2161885 181.1559740 152.7008707  73.8978749 181.0057234
 158.0808790  73.3055784 178.7247728 157.5142276  73.4250000 180.1500000
 156.0970000  73.4250000 180.1500000 156.2180000  72.4530000 180.1810000
 155.6931057  72.8761082 180.8772381 155.2993487  73.6854789 182.4357628
 154.6104599  76.5813217 181.1127677 153.3183039  75.9275211 182.1800313
 152.9184407  76.9991457 180.7802770 153.1079448  72.9240218 180.7127150
 151.6455256  73.9522270 180.7310774 152.8305857  74.0585068 182.0796063
 157.6899904  74.1184292 178.1019391 159.1741579  73.3623141 178.7467570
 157.8633253  74.3547113 180.6083684 157.8597374  72.6044533 180.7875830
 155.7926078  74.3565210 180.1500000 157.0680000  71.0000000 180.3220000
 153.5870000  76.6200000 189.1190000 154.0250000  76.2980000 187.8010000
 155.5416870  76.4310422 187.7330128 156.1478325  75.5304892 188.6572661
 152.6170000  76.5030000 189.0990000 153.5451500  76.9810745 187.0939185
 153.7164998  75.2698257 187.5879032 155.8577786  77.4439699 188.0040657
 155.9098866  76.1980970 186.7304997 155.7132520  75.7153657 189.5128065
 155.5190000  73.8360000 194.5420000 153.4650000  74.9830000 193.4260000
 153.5759214  76.2161885 194.3209740 152.7008707  73.8978749 194.1707234
 158.0808790  73.3055784 191.8897728 157.5142276  73.4250000 193.3150000
 156.0970000  73.4250000 193.3150000 156.2180000  72.4530000 193.3460000
 155.6931057  72.8761082 194.0422381 155.2993487  73.6854789 195.6007628
 154.6104599  76.5813217 194.2777677 153.3183039  75.9275211 195.3450313
 152.9184407  76.9991457 193.9452770 153.1079448  72.9240218 193.8777150
 151.6455256  73.9522270 193.8960774 152.8305857  74.0585068 195.2446063
 157.6899904  74.1184292 191.2669391 159.1741579  73.3623141 191.9117570
 157.8633253  74.3547113 193.7733684 157.8597374  72.6044533 193.9525830
 155.7926078  74.3565210 193.3150000 157.0680000  71.0000000 193.4870000
 153.5870000  76.6200000 202.2840000 154.0250000  76.2980000 200.9660000
 155.5416870  76.4310422 200.8980128 156.1478325  75.5304892 201.8222661
 152.6170000  76.5030000 202.2640000 153.5451500  76.9810745 200.2589185
 153.7164998  75.2698257 200.7529032 155.8577786  77.4439699 201.1690657
 155.9098866  76.1980970 199.8954997 155.7132520  75.7153657 202.6778065
 155.5190000  81.1520000  76.0550000 153.4650000  82.2990000  74.9390000
 153.5759214  83.5321885  75.8339740 152.7008707  81.2138749  75.6837234
 158.0808790  80.6215784  73.4027728 157.5142276  80.7410000  74.8280000
 156.0970000  80.7410000  74.8280000 156.2180000  79.7690000  74.8590000
 155.6931057  80.1921082  75.5552381 155.2993487  81.0014789  77.1137628
 154.6104599  83.8973217  75.7907677 153.3183039  83.2435211  76.8580313
 152.9184407  84.3151457  75.4582770 153.1079448  80.2400218  75.3907150
 151.6455256  81.2682270  75.4090774 152.8305857  81.3745068  76.7576063
 157.6899904  81.4344292  72.7799391 159.1741579  80.6783141  73.4247570
 157.8633253  81.6707113  75.2863684 157.8597374  79.9204533  75.4655830
 155.7926078  81.6725210  74.8280000 157.0680000  78.3160000  75.0000000
 153.5870000  83.9360000  83.7970000 154.0250000  83.6140000  82.4790000
 155.5416870  83.7470422  82.4110128 156.1478325  82.8464892  83.3352661
 152.6170000  83.8190000  83.7770000 153.5451500  84.2970745  81.7719185
 153.7164998  82.5858257  82.2659032 155.8577786  84.7599699  82.6820657
 155.9098866  83.5140970  81.4084997 155.7132520  83.0313657  84.1908065
 155.5190000  81.1520000  89.2200000 153.4650000  82.2990000  88.1040000
 153.5759214  83.5321885  88.9989740 152.7008707  81.2138749  88.8487234
 158.0808790  80.6215784  86.5677728 157.5142276  80.7410000  87.9930000
 156.0970000  80.7410000  87.9930000 156.2180000  79.7690000  88.0240000
 155.6931057  80.1921082  88.7202381 155.2993487  81.0014789  90.2787628
 154.6104599  83.8973217  88.9557677 153.3183039  83.2435211  90.0230313
 152.9184407  84.3151457  88.6232770 153.1079448  80.2400218  88.5557150
 151.6455256  81.2682270  88.5740774 152.8305857  81.3745068  89.9226063
 157.6899904  81.4344292  85.9449391 159.1741579  80.6783141  86.5897570
 157.8633253  81.6707113  88.4513684 157.8597374  79.9204533  88.6305830
 155.7926078  81.6725210  87.9930000 157.0680000  78.3160000  88.1650000
 153.5870000  83.9360000  96.9620000 154.0250000  83.6140000  95.6440000
 155.5416870  83.7470422  95.5760128 156.1478325  82.8464892  96.5002661
 152.6170000  83.8190000  96.9420000 153.5451500  84.2970745  94.9369185
 153.7164998  82.5858257  95.4309032 155.8577786  84.7599699  95.8470657
 155.9098866  83.5140970  94.5734997 155.7132520  83.0313657  97.3558065
 155.5190000  81.1520000 102.3850000 153.4650000  82.2990000 101.2690000
 153.5759214  83.5321885 102.1639740 152.7008707  81.2138749 102.0137234
 158.0808790  80.6215784  99.7327728 157.5142276  80.7410000 101.1580000
 156.0970000  80.7410000 101.1580000 156.2180000  79.7690000 101.1890000
 155.6931057  80.1921082 101.8852381 155.2993487  81.0014789 103.4437628
 154.6104599  83.8973217 102.1207677 153.3183039  83.2435211 103.1880313
 152.9184407  84.3151457 101.7882770 153.1079448  80.2400218 101.7207150
 151.6455256  81.2682270 101.7390774 152.8305857  81.3745068 103.0876063
 157.6899904  81.4344292  99.1099391 159.1741579  80.6783141  99.7547570
 157.8633253  81.6707113 101.6163684 157.8597374  79.9204533 101.7955830
 155.7926078  81.6725210 101.1580000 157.0680000  78.3160000 101.3300000
 153.5870000  83.9360000 110.1270000 154.0250000  83.6140000 108.8090000
 155.5416870  83.7470422 108.7410128 156.1478325  82.8464892 109.6652661
 152.6170000  83.8190000 110.1070000 153.5451500  84.2970745 108.1019185
 153.7164998  82.5858257 108.5959032 155.8577786  84.7599699 109.0120657
 155.9098866  83.5140970 107.7384997 155.7132520  83.0313657 110.5208065
 155.5190000  81.1520000 115.5510000 153.4650000  82.2990000 114.4350000
 153.5759214  83.5321885 115.3299740 152.7008707  81.2138749 115.1797234
 158.0808790  80.6215784 112.8987728 157.5142276  80.7410000 114.3240000
 156.0970000  80.7410000 114.3240000 156.2180000  79.7690000 114.3550000
 155.6931057  80.1921082 115.0512381 155.2993487  81.0014789 116.6097628
 154.6104599  83.8973217 115.2867677 153.3183039  83.2435211 116.3540313
 152.9184407  84.3151457 114.9542770 153.1079448  80.2400218 114.8867150
 151.6455256  81.2682270 114.9050774 152.8305857  81.3745068 116.2536063
 157.6899904  81.4344292 112.2759391 159.1741579  80.6783141 112.9207570
 157.8633253  81.6707113 114.7823684 157.8597374  79.9204533 114.9615830
 155.7926078  81.6725210 114.3240000 157.0680000  78.3160000 114.4960000
 153.5870000  83.9360000 123.2930000 154.0250000  83.6140000 121.9750000
 155.5416870  83.7470422 121.9070128 156.1478325  82.8464892 122.8312661
 152.6170000  83.8190000 123.2730000 153.5451500  84.2970745 121.2679185
 153.7164998  82.5858257 121.7619032 155.8577786  84.7599699 122.1780657
 155.9098866  83.5140970 120.9044997 155.7132520  83.0313657 123.6868065
 155.5190000  81.1520000 128.7160000 153.4650000  82.2990000 127.6000000
 153.5759214  83.5321885 128.4949740 152.7008707  81.2138749 128.3447234
 158.0808790  80.6215784 126.0637728 157.5142276  80.7410000 127.4890000
 156.0970000  80.7410000 127.4890000 156.2180000  79.7690000 127.5200000
 155.6931057  80.1921082 128.2162381 155.2993487  81.0014789 129.7747628
 154.6104599  83.8973217 128.4517677 153.3183039  83.2435211 129.5190313
 152.9184407  84.3151457 128.1192770 153.1079448  80.2400218 128.0517150
 151.6455256  81.2682270 128.0700774 152.8305857  81.3745068 129.4186063
 157.6899904  81.4344292 125.4409391 159.1741579  80.6783141 126.0857570
 157.8633253  81.6707113 127.9473684 157.8597374  79.9204533 128.1265830
 155.7926078  81.6725210 127.4890000 157.0680000  78.3160000 127.6610000
 153.5870000  83.9360000 136.4580000 154.0250000  83.6140000 135.1400000
 155.5416870  83.7470422 135.0720128 156.1478325  82.8464892 135.9962661
 152.6170000  83.8190000 136.4380000 153.5451500  84.2970745 134.4329185
 153.7164998  82.5858257 134.9269032 155.8577786  84.7599699 135.3430657
 155.9098866  83.5140970 134.0694997 155.7132520  83.0313657 136.8518065
 155.5190000  81.1520000 141.8810000 153.4650000  82.2990000 140.7650000
 153.5759214  83.5321885 141.6599740 152.7008707  81.2138749 141.5097234
 158.0808790  80.6215784 139.2287728 157.5142276  80.7410000 140.6540000
 156.0970000  80.7410000 140.6540000 156.2180000  79.7690000 140.6850000
 155.6931057  80.1921082 141.3812381 155.2993487  81.0014789 142.9397628
 154.6104599  83.8973217 141.6167677 153.3183039  83.2435211 142.6840313
 152.9184407  84.3151457 141.2842770 153.1079448  80.2400218 141.2167150
 151.6455256  81.2682270 141.2350774 152.8305857  81.3745068 142.5836063
 157.6899904  81.4344292 138.6059391 159.1741579  80.6783141 139.2507570
 157.8633253  81.6707113 141.1123684 157.8597374  79.9204533 141.2915830
 155.7926078  81.6725210 140.6540000 157.0680000  78.3160000 140.8260000
 153.5870000  83.9360000 149.6230000 154.0250000  83.6140000 148.3050000
 155.5416870  83.7470422 148.2370128 156.1478325  82.8464892 149.1612661
 152.6170000  83.8190000 149.6030000 153.5451500  84.2970745 147.5979185
 153.7164998  82.5858257 148.0919032 155.8577786  84.7599699 148.5080657
 155.9098866  83.5140970 147.2344997 155.7132520  83.0313657 150.0168065
 155.5190000  81.1520000 155.0460000 153.4650000  82.2990000 153.9300000
 153.5759214  83.5321885 154.8249740 152.7008707  81.2138749 154.6747234
 158.0808790  80.6215784 152.3937728 157.5142276  80.7410000 153.8190000
 156.0970000  80.7410000 153.8190000 156.2180000  79.7690000 153.8500000
 155.6931057  80.1921082 154.5462381 155.2993487  81.0014789 156.1047628
 154.6104599  83.8973217 154.7817677 153.3183039  83.2435211 155.8490313
 152.9184407  84.3151457 154.4492770 153.1079448  80.2400218 154.3817150
 151.6455256  81.2682270 154.4000774 152.8305857  81.3745068 155.7486063
 157.6899904  81.4344292 151.7709391 159.1741579  80.6783141 152.4157570
 157.8633253  81.6707113 154.2773684 157.8597374  79.9204533 154.4565830
 155.7926078  81.6725210 153.8190000 157.0680000  78.3160000 153.9910000
 153.5870000  83.9360000 162.7880000 154.0250000  83.6140000 161.4700000
 155.5416870  83.7470422 161.4020128 156.1478325  82.8464892 162.3262661
 152.6170000  83.8190000 162.7680000 153.5451500  84.2970745 160.7629185
 153.7164998  82.5858257 161.2569032 155.8577786  84.7599699 161.6730657
 155.9098866  83.5140970 160.3994997 155.7132520  83.0313657 163.1818065
 155.5190000  81.1520000 168.2110000 153.4650000  82.2990000 167.0950000
 153.5759214  83.5321885 167.9899740 152.7008707  81.2138749 167.8397234
 158.0808790  80.6215784 165.5587728 157.5142276  80.7410000 166.9840000
 156.0970000  80.7410000 166.9840000 156.2180000  79.7690000 167.0150000
 155.6931057  80.1921082 167.7112381 155.2993487  81.0014789 169.2697628
 154.6104599  83.8973217 167.9467677 153.3183039  83.2435211 169.0140313
 152.9184407  84.3151457 167.6142770 153.1079448  80.2400218 167.5467150
 151.6455256  81.2682270 167.5650774 152.8305857  81.3745068 168.9136063
 157.6899904  81.4344292 164.9359391 159.1741579  80.6783141 165.5807570
 157.8633253  81.6707113 167.4423684 157.8597374  79.9204533 167.6215830
 155.7926078  81.6725210 166.9840000 157.0680000  78.3160000 167.1560000
 153.5870000  83.9360000 175.9530000 154.0250000  83.6140000 174.6350000
 155.5416870  83.7470422 174.5670128 156.1478325  82.8464892 175.4912661
 152.6170000  83.8190000 175.9330000 153.5451500  84.2970745 173.9279185
 153.7164998  82.5858257 174.4219032 155.8577786  84.7599699 174.8380657
 155.9098866  83.5140970 173.5644997 155.7132520  83.0313657 176.3468065
 155.5190000  81.1520000 181.3770000 153.4650000  82.2990000 180.2610000
 153.5759214  83.5321885 181.1559740 152.7008707  81.2138749 181.0057234
 158.0808790  80.6215784 178.7247728 157.5142276  80.7410000 180.1500000
 156.0970000  80.7410000 180.1500000 156.2180000  79.7690000 180.1810000
 155.6931057  80.1921082 180.8772381 155.2993487  81.0014789 182.4357628
 154.6104599  83.8973217 181.1127677 153.3183039  83.2435211 182.1800313
 152.9184407  84.3151457 180.7802770 153.1079448  80.2400218 180.7127150
 151.6455256  81.2682270 180.7310774 152.8305857  81.3745068 182.0796063
 157.6899904  81.4344292 178.1019391 159.1741579  80.6783141 178.7467570
 157.8633253  81.6707113 180.6083684 157.8597374  79.9204533 180.7875830
 155.7926078  81.6725210 180.1500000 157.0680000  78.3160000 180.3220000
 153.5870000  83.9360000 189.1190000 154.0250000  83.6140000 187.8010000
 155.5416870  83.7470422 187.7330128 156.1478325  82.8464892 188.6572661
 152.6170000  83.8190000 189.0990000 153.5451500  84.2970745 187.0939185
 153.7164998  82.5858257 187.5879032 155.8577786  84.7599699 188.0040657
 155.9098866  83.5140970 186.7304997 155.7132520  83.0313657 189.5128065
 155.5190000  81.1520000 194.5420000 153.4650000  82.2990000 193.4260000
 153.5759214  83.5321885 194.3209740 152.7008707  81.2138749 194.1707234
 158.0808790  80.6215784 191.8897728 157.5142276  80.7410000 193.3150000
 156.0970000  80.7410000 193.3150000 156.2180000  79.7690000 193.3460000
 155.6931057  80.1921082 194.0422381 155.2993487  81.0014789 195.6007628
 154.6104599  83.8973217 194.2777677 153.3183039  83.2435211 195.3450313
 152.9184407  84.3151457 193.9452770 153.1079448  80.2400218 193.8777150
 151.6455256  81.2682270 193.8960774 152.8305857  81.3745068 195.2446063
 157.6899904  81.4344292 191.2669391 159.1741579  80.6783141 191.9117570
 157.8633253  81.6707113 193.7733684 157.8597374  79.9204533 193.9525830
 155.7926078  81.6725210 193.3150000 157.0680000  78.3160000 193.4870000
 153.5870000  83.9360000 202.2840000 154.0250000  83.6140000 200.9660000
 155.5416870  83.7470422 200.8980128 156.1478325  82.8464892 201.8222661
 152.6170000  83.8190000 202.2640000 153.5451500  84.2970745 200.2589185
 153.7164998  82.5858257 200.7529032 155.8577786  84.7599699 201.1690657
 155.9098866  83.5140970 199.8954997 155.7132520  83.0313657 202.6778065
 155.5190000  88.4690000  76.0550000 153.4650000  89.6160000  74.9390000
 153.5759214  90.8491885  75.8339740 152.7008707  88.5308749  75.6837234
 158.0808790  87.9385784  73.4027728 157.5142276  88.0580000  74.8280000
 156.0970000  88.0580000  74.8280000 156.2180000  87.0860000  74.8590000
 155.6931057  87.5091082  75.5552381 155.2993487  88.3184789  77.1137628
 154.6104599  91.2143217  75.7907677 153.3183039  90.5605211  76.8580313
 152.9184407  91.6321457  75.4582770 153.1079448  87.5570218  75.3907150
 151.6455256  88.5852270  75.4090774 152.8305857  88.6915068  76.7576063
 157.6899904  88.7514292  72.7799391 159.1741579  87.9953141  73.4247570
 157.8633253  88.9877113  75.2863684 157.8597374  87.2374533  75.4655830
 155.7926078  88.9895210  74.8280000 157.0680000  85.6330000  75.0000000
 153.5870000  91.2530000  83.7970000 154.0250000  90.9310000  82.4790000
 155.5416870  91.0640422  82.4110128 156.1478325  90.1634892  83.3352661
 152.6170000  91.1360000  83.7770000 153.5451500  91.6140745  81.7719185
 153.7164998  89.9028257  82.2659032 155.8577786  92.0769699  82.6820657
 155.9098866  90.8310970  81.4084997 155.7132520  90.3483657  84.1908065
 155.5190000  88.4690000  89.2200000 153.4650000  89.6160000  88.1040000
 153.5759214  90.8491885  88.9989740 152.7008707  88.5308749  88.8487234
 158.0808790  87.9385784  86.5677728 157.5142276  88.0580000  87.9930000
 156.0970000  88.0580000  87.9930000 156.2180000  87.0860000  88.0240000
 155.6931057  87.5091082  88.7202381 155.2993487  88.3184789  90.2787628
 154.6104599  91.2143217  88.9557677 153.3183039  90.5605211  90.0230313
 152.9184407  91.6321457  88.6232770 153.1079448  87.5570218  88.5557150
 151.6455256  88.5852270  88.5740774 152.8305857  88.6915068  89.9226063
 157.6899904  88.7514292  85.9449391 159.1741579  87.9953141  86.5897570
 157.8633253  88.9877113  88.4513684 157.8597374  87.2374533  88.6305830
 155.7926078  88.9895210  87.9930000 157.0680000  85.6330000  88.1650000
 153.5870000  91.2530000  96.9620000 154.0250000  90.9310000  95.6440000
 155.5416870  91.0640422  95.5760128 156.1478325  90.1634892  96.5002661
 152.6170000  91.1360000  96.9420000 153.5451500  91.6140745  94.9369185
 153.7164998  89.9028257  95.4309032 155.8577786  92.0769699  95.8470657
 155.9098866  90.8310970  94.5734997 155.7132520  90.3483657  97.3558065
 155.5190000  88.4690000 102.3850000 153.4650000  89.6160000 101.2690000
 153.5759214  90.8491885 102.1639740 152.7008707  88.5308749 102.0137234
 158.0808790  87.9385784  99.7327728 157.5142276  88.0580000 101.1580000
 156.0970000  88.0580000 101.1580000 156.2180000  87.0860000 101.1890000
 155.6931057  87.5091082 101.8852381 155.2993487  88.3184789 103.4437628
 154.6104599  91.2143217 102.1207677 153.3183039  90.5605211 103.1880313
 152.9184407  91.6321457 101.7882770 153.1079448  87.5570218 101.7207150
 151.6455256  88.5852270 101.7390774 152.8305857  88.6915068 103.0876063
 157.6899904  88.7514292  99.1099391 159.1741579  87.9953141  99.7547570
 157.8633253  88.9877113 101.6163684 157.8597374  87.2374533 101.7955830
 155.7926078  88.9895210 101.1580000 157.0680000  85.6330000 101.3300000
 153.5870000  91.2530000 110.1270000 154.0250000  90.9310000 108.8090000
 155.5416870  91.0640422 108.7410128 156.1478325  90.1634892 109.6652661
 152.6170000  91.1360000 110.1070000 153.5451500  91.6140745 108.1019185
 153.7164998  89.9028257 108.5959032 155.8577786  92.0769699 109.0120657
 155.9098866  90.8310970 107.7384997 155.7132520  90.3483657 110.5208065
 155.5190000  88.4690000 115.5510000 153.4650000  89.6160000 114.4350000
 153.5759214  90.8491885 115.3299740 152.7008707  88.5308749 115.1797234
 158.0808790  87.9385784 112.8987728 157.5142276  88.0580000 114.3240000
 156.0970000  88.0580000 114.3240000 156.2180000  87.0860000 114.3550000
 155.6931057  87.5091082 115.0512381 155.2993487  88.3184789 116.6097628
 154.6104599  91.2143217 115.2867677 153.3183039  90.5605211 116.3540313
 152.9184407  91.6321457 114.9542770 153.1079448  87.5570218 114.8867150
 151.6455256  88.5852270 114.9050774 152.8305857  88.6915068 116.2536063
 157.6899904  88.7514292 112.2759391 159.1741579  87.9953141 112.9207570
 157.8633253  88.9877113 114.7823684 157.8597374  87.2374533 114.9615830
 155.7926078  88.9895210 114.3240000 157.0680000  85.6330000 114.4960000
 153.5870000  91.2530000 123.2930000 154.0250000  90.9310000 121.9750000
 155.5416870  91.0640422 121.9070128 156.1478325  90.1634892 122.8312661
 152.6170000  91.1360000 123.2730000 153.5451500  91.6140745 121.2679185
 153.7164998  89.9028257 121.7619032 155.8577786  92.0769699 122.1780657
 155.9098866  90.8310970 120.9044997 155.7132520  90.3483657 123.6868065
 155.5190000  88.4690000 128.7160000 153.4650000  89.6160000 127.6000000
 153.5759214  90.8491885 128.4949740 152.7008707  88.5308749 128.3447234
 158.0808790  87.9385784 126.0637728 157.5142276  88.0580000 127.4890000
 156.0970000  88.0580000 127.4890000 156.2180000  87.0860000 127.5200000
 155.6931057  87.5091082 128.2162381 155.2993487  88.3184789 129.7747628
 154.6104599  91.2143217 128.4517677 153.3183039  90.5605211 129.5190313
 152.9184407  91.6321457 128.1192770 153.1079448  87.5570218 128.0517150
 151.6455256  88.5852270 128.0700774 152.8305857  88.6915068 129.4186063
 157.6899904  88.7514292 125.4409391 159.1741579  87.9953141 126.0857570
 157.8633253  88.9877113 127.9473684 157.8597374  87.2374533 128.1265830
 155.7926078  88.9895210 127.4890000 157.0680000  85.6330000 127.6610000
 153.5870000  91.2530000 136.4580000 154.0250000  90.9310000 135.1400000
 155.5416870  91.0640422 135.0720128 156.1478325  90.1634892 135.9962661
 152.6170000  91.1360000 136.4380000 153.5451500  91.6140745 134.4329185
 153.7164998  89.9028257 134.9269032 155.8577786  92.0769699 135.3430657
 155.9098866  90.8310970 134.0694997 155.7132520  90.3483657 136.8518065
 155.5190000  88.4690000 141.8810000 153.4650000  89.6160000 140.7650000
 153.5759214  90.8491885 141.6599740 152.7008707  88.5308749 141.5097234
 158.0808790  87.9385784 139.2287728 157.5142276  88.0580000 140.6540000
 156.0970000  88.0580000 140.6540000 156.2180000  87.0860000 140.6850000
 155.6931057  87.5091082 141.3812381 155.2993487  88.3184789 142.9397628
 154.6104599  91.2143217 141.6167677 153.3183039  90.5605211 142.6840313
 152.9184407  91.6321457 141.2842770 153.1079448  87.5570218 141.2167150
 151.6455256  88.5852270 141.2350774 152.8305857  88.6915068 142.5836063
 157.6899904  88.7514292 138.6059391 159.1741579  87.9953141 139.2507570
 157.8633253  88.9877113 141.1123684 157.8597374  87.2374533 141.2915830
 155.7926078  88.9895210 140.6540000 157.0680000  85.6330000 140.8260000
 153.5870000  91.2530000 149.6230000 154.0250000  90.9310000 148.3050000
 155.5416870  91.0640422 148.2370128 156.1478325  90.1634892 149.1612661
 152.6170000  91.1360000 149.6030000 153.5451500  91.6140745 147.5979185
 153.7164998  89.9028257 148.0919032 155.8577786  92.0769699 148.5080657
 155.9098866  90.8310970 147.2344997 155.7132520  90.3483657 150.0168065
 155.5190000  88.4690000 155.0460000 153.4650000  89.6160000 153.9300000
 153.5759214  90.8491885 154.8249740 152.7008707  88.5308749 154.6747234
 158.0808790  87.9385784 152.3937728 157.5142276  88.0580000 153.8190000
 156.0970000  88.0580000 153.8190000 156.2180000  87.0860000 153.8500000
 155.6931057  87.5091082 154.5462381 155.2993487  88.3184789 156.1047628
 154.6104599  91.2143217 154.7817677 153.3183039  90.5605211 155.8490313
 152.9184407  91.6321457 154.4492770 153.1079448  87.5570218 154.3817150
 151.6455256  88.5852270 154.4000774 152.8305857  88.6915068 155.7486063
 157.6899904  88.7514292 151.7709391 159.1741579  87.9953141 152.4157570
 157.8633253  88.9877113 154.2773684 157.8597374  87.2374533 154.4565830
 155.7926078  88.9895210 153.8190000 157.0680000  85.6330000 153.9910000
 153.5870000  91.2530000 162.7880000 154.0250000  90.9310000 161.4700000
 155.5416870  91.0640422 161.4020128 156.1478325  90.1634892 162.3262661
 152.6170000  91.1360000 162.7680000 153.5451500  91.6140745 160.7629185
 153.7164998  89.9028257 161.2569032 155.8577786  92.0769699 161.6730657
 155.9098866  90.8310970 160.3994997 155.7132520  90.3483657 163.1818065
 155.5190000  88.4690000 168.2110000 153.4650000  89.6160000 167.0950000
 153.5759214  90.8491885 167.9899740 152.7008707  88.5308749 167.8397234
 158.0808790  87.9385784 165.5587728 157.5142276  88.0580000 166.9840000
 156.0970000  88.0580000 166.9840000 156.2180000  87.0860000 167.0150000
 155.6931057  87.5091082 167.7112381 155.2993487  88.3184789 169.2697628
 154.6104599  91.2143217 167.9467677 153.3183039  90.5605211 169.0140313
 152.9184407  91.6321457 167.6142770 153.1079448  87.5570218 167.5467150
 151.6455256  88.5852270 167.5650774 152.8305857  88.6915068 168.9136063
 157.6899904  88.7514292 164.9359391 159.1741579  87.9953141 165.5807570
 157.8633253  88.9877113 167.4423684 157.8597374  87.2374533 167.6215830
 155.7926078  88.9895210 166.9840000 157.0680000  85.6330000 167.1560000
 153.5870000  91.2530000 175.9530000 154.0250000  90.9310000 174.6350000
 155.5416870  91.0640422 174.5670128 156.1478325  90.1634892 175.4912661
 152.6170000  91.1360000 175.9330000 153.5451500  91.6140745 173.9279185
 153.7164998  89.9028257 174.4219032 155.8577786  92.0769699 174.8380657
 155.9098866  90.8310970 173.5644997 155.7132520  90.3483657 176.3468065
 155.5190000  88.4690000 181.3770000 153.4650000  89.6160000 180.2610000
 153.5759214  90.8491885 181.1559740 152.7008707  88.5308749 181.0057234
 158.0808790  87.9385784 178.7247728 157.5142276  88.0580000 180.1500000
 156.0970000  88.0580000 180.1500000 156.2180000  87.0860000 180.1810000
 155.6931057  87.5091082 180.8772381 155.2993487  88.3184789 182.4357628
 154.6104599  91.2143217 181.1127677 153.3183039  90.5605211 182.1800313
 152.9184407  91.6321457 180.7802770 153.1079448  87.5570218 180.7127150
 151.6455256  88.5852270 180.7310774 152.8305857  88.6915068 182.0796063
 157.6899904  88.7514292 178.1019391 159.1741579  87.9953141 178.7467570
 157.8633253  88.9877113 180.6083684 157.8597374  87.2374533 180.7875830
 155.7926078  88.9895210 180.1500000 157.0680000  85.6330000 180.3220000
 153.5870000  91.2530000 189.1190000 154.0250000  90.9310000 187.8010000
 155.5416870  91.0640422 187.7330128 156.1478325  90.1634892 188.6572661
 152.6170000  91.1360000 189.0990000 153.5451500  91.6140745 187.0939185
 153.7164998  89.9028257 187.5879032 155.8577786  92.0769699 188.0040657
 155.9098866  90.8310970 186.7304997 155.7132520  90.3483657 189.5128065
 155.5190000  88.4690000 194.5420000 153.4650000  89.6160000 193.4260000
 153.5759214  90.8491885 194.3209740 152.7008707  88.5308749 194.1707234
 158.0808790  87.9385784 191.8897728 157.5142276  88.0580000 193.3150000
 156.0970000  88.0580000 193.3150000 156.2180000  87.0860000 193.3460000
 155.6931057  87.5091082 194.0422381 155.2993487  88.3184789 195.6007628
 154.6104599  91.2143217 194.2777677 153.3183039  90.5605211 195.3450313
 152.9184407  91.6321457 193.9452770 153.1079448  87.5570218 193.8777150
 151.6455256  88.5852270 193.8960774 152.8305857  88.6915068 195.2446063
 157.6899904  88.7514292 191.2669391 159.1741579  87.9953141 191.9117570
 157.8633253  88.9877113 193.7733684 157.8597374  87.2374533 193.9525830
 155.7926078  88.9895210 193.3150000 157.0680000  85.6330000 193.4870000
 153.5870000  91.2530000 202.2840000 154.0250000  90.9310000 200.9660000
 155.5416870  91.0640422 200.8980128 156.1478325  90.1634892 201.8222661
 152.6170000  91.1360000 202.2640000 153.5451500  91.6140745 200.2589185
 153.7164998  89.9028257 200.7529032 155.8577786  92.0769699 201.1690657
 155.9098866  90.8310970 199.8954997 155.7132520  90.3483657 202.6778065
 155.5190000  95.7850000  76.0550000 153.4650000  96.9320000  74.9390000
 153.5759214  98.1651885  75.8339740 152.7008707  95.8468749  75.6837234
 158.0808790  95.2545784  73.4027728 157.5142276  95.3740000  74.8280000
 156.0970000  95.3740000  74.8280000 156.2180000  94.4020000  74.8590000
 155.6931057  94.8251082  75.5552381 155.2993487  95.6344789  77.1137628
 154.6104599  98.5303217  75.7907677 153.3183039  97.8765211  76.8580313
 152.9184407  98.9481457  75.4582770 153.1079448  94.8730218  75.3907150
 151.6455256  95.9012270  75.4090774 152.8305857  96.0075068  76.7576063
 157.6899904  96.0674292  72.7799391 159.1741579  95.3113141  73.4247570
 157.8633253  96.3037113  75.2863684 157.8597374  94.5534533  75.4655830
 155.7926078  96.3055210  74.8280000 157.0680000  92.9490000  75.0000000
 153.5870000  98.5690000  83.7970000 154.0250000  98.2470000  82.4790000
 155.5416870  98.3800422  82.4110128 156.1478325  97.4794892  83.3352661
 152.6170000  98.4520000  83.7770000 153.5451500  98.9300745  81.7719185
 153.7164998  97.2188257  82.2659032 155.8577786  99.3929699  82.6820657
 155.9098866  98.1470970  81.4084997 155.7132520  97.6643657  84.1908065
 155.5190000  95.7850000  89.2200000 153.4650000  96.9320000  88.1040000
 153.5759214  98.1651885  88.9989740 152.7008707  95.8468749  88.8487234
 158.0808790  95.2545784  86.5677728 157.5142276  95.3740000  87.9930000
 156.0970000  95.3740000  87.9930000 156.2180000  94.4020000  88.0240000
 155.6931057  94.8251082  88.7202381 155.2993487  95.6344789  90.2787628
 154.6104599  98.5303217  88.9557677 153.3183039  97.8765211  90.0230313
 152.9184407  98.9481457  88.6232770 153.1079448  94.8730218  88.5557150
 151.6455256  95.9012270  88.5740774 152.8305857  96.0075068  89.9226063
 157.6899904  96.0674292  85.9449391 159.1741579  95.3113141  86.5897570
 157.8633253  96.3037113  88.4513684 157.8597374  94.5534533  88.6305830
 155.7926078  96.3055210  87.9930000 157.0680000  92.9490000  88.1650000
 153.5870000  98.5690000  96.9620000 154.0250000  98.2470000  95.6440000
 155.5416870  98.3800422  95.5760128 156.1478325  97.4794892  96.5002661
 152.6170000  98.4520000  96.9420000 153.5451500  98.9300745  94.9369185
 153.7164998  97.2188257  95.4309032 155.8577786  99.3929699  95.8470657
 155.9098866  98.1470970  94.5734997 155.7132520  97.6643657  97.3558065
 155.5190000  95.7850000 102.3850000 153.4650000  96.9320000 101.2690000
 153.5759214  98.1651885 102.1639740 152.7008707  95.8468749 102.0137234
 158.0808790  95.2545784  99.7327728 157.5142276  95.3740000 101.1580000
 156.0970000  95.3740000 101.1580000 156.2180000  94.4020000 101.1890000
 155.6931057  94.8251082 101.8852381 155.2993487  95.6344789 103.4437628
 154.6104599  98.5303217 102.1207677 153.3183039  97.8765211 103.1880313
 152.9184407  98.9481457 101.7882770 153.1079448  94.8730218 101.7207150
 151.6455256  95.9012270 101.7390774 152.8305857  96.0075068 103.0876063
 157.6899904  96.0674292  99.1099391 159.1741579  95.3113141  99.7547570
 157.8633253  96.3037113 101.6163684 157.8597374  94.5534533 101.7955830
 155.7926078  96.3055210 101.1580000 157.0680000  92.9490000 101.3300000
 153.5870000  98.5690000 110.1270000 154.0250000  98.2470000 108.8090000
 155.5416870  98.3800422 108.7410128 156.1478325  97.4794892 109.6652661
 152.6170000  98.4520000 110.1070000 153.5451500  98.9300745 108.1019185
 153.7164998  97.2188257 108.5959032 155.8577786  99.3929699 109.0120657
 155.9098866  98.1470970 107.7384997 155.7132520  97.6643657 110.5208065
 155.5190000  95.7850000 115.5510000 153.4650000  96.9320000 114.4350000
 153.5759214  98.1651885 115.3299740 152.7008707  95.8468749 115.1797234
 158.0808790  95.2545784 112.8987728 157.5142276  95.3740000 114.3240000
 156.0970000  95.3740000 114.3240000 156.2180000  94.4020000 114.3550000
 155.6931057  94.8251082 115.0512381 155.2993487  95.6344789 116.6097628
 154.6104599  98.5303217 115.2867677 153.3183039  97.8765211 116.3540313
 152.9184407  98.9481457 114.9542770 153.1079448  94.8730218 114.8867150
 151.6455256  95.9012270 114.9050774 152.8305857  96.0075068 116.2536063
 157.6899904  96.0674292 112.2759391 159.1741579  95.3113141 112.9207570
 157.8633253  96.3037113 114.7823684 157.8597374  94.5534533 114.9615830
 155.7926078  96.3055210 114.3240000 157.0680000  92.9490000 114.4960000
 153.5870000  98.5690000 123.2930000 154.0250000  98.2470000 121.9750000
 155.5416870  98.3800422 121.9070128 156.1478325  97.4794892 122.8312661
 152.6170000  98.4520000 123.2730000 153.5451500  98.9300745 121.2679185
 153.7164998  97.2188257 121.7619032 155.8577786  99.3929699 122.1780657
 155.9098866  98.1470970 120.9044997 155.7132520  97.6643657 123.6868065
 155.5190000  95.7850000 128.7160000 153.4650000  96.9320000 127.6000000
 153.5759214  98.1651885 128.4949740 152.7008707  95.8468749 128.3447234
 158.0808790  95.2545784 126.0637728 157.5142276  95.3740000 127.4890000
 156.0970000  95.3740000 127.4890000 156.2180000  94.4020000 127.5200000
 155.6931057  94.8251082 128.2162381 155.2993487  95.6344789 129.7747628
 154.6104599  98.5303217 128.4517677 153.3183039  97.8765211 129.5190313
 152.9184407  98.9481457 128.1192770 153.1079448  94.8730218 128.0517150
 151.6455256  95.9012270 128.0700774 152.8305857  96.0075068 129.4186063
 157.6899904  96.0674292 125.4409391 159.1741579  95.3113141 126.0857570
 157.8633253  96.3037113 127.9473684 157.8597374  94.5534533 128.1265830
 155.7926078  96.3055210 127.4890000 157.0680000  92.9490000 127.6610000
 153.5870000  98.5690000 136.4580000 154.0250000  98.2470000 135.1400000
 155.5416870  98.3800422 135.0720128 156.1478325  97.4794892 135.9962661
 152.6170000  98.4520000 136.4380000 153.5451500  98.9300745 134.4329185
 153.7164998  97.2188257 134.9269032 155.8577786  99.3929699 135.3430657
 155.9098866  98.1470970 134.0694997 155.7132520  97.6643657 136.8518065
 155.5190000  95.7850000 141.8810000 153.4650000  96.9320000 140.7650000
 153.5759214  98.1651885 141.6599740 152.7008707  95.8468749 141.5097234
 158.0808790  95.2545784 139.2287728 157.5142276  95.3740000 140.6540000
 156.0970000  95.3740000 140.6540000 156.2180000  94.4020000 140.6850000
 155.6931057  94.8251082 141.3812381 155.2993487  95.6344789 142.9397628
 154.6104599  98.5303217 141.6167677 153.3183039  97.8765211 142.6840313
 152.9184407  98.9481457 141.2842770 153.1079448  94.8730218 141.2167150
 151.6455256  95.9012270 141.2350774 152.8305857  96.0075068 142.5836063
 157.6899904  96.0674292 138.6059391 159.1741579  95.3113141 139.2507570
 157.8633253  96.3037113 141.1123684 157.8597374  94.5534533 141.2915830
 155.7926078  96.3055210 140.6540000 157.0680000  92.9490000 140.8260000
 153.5870000  98.5690000 149.6230000 154.0250000  98.2470000 148.3050000
 155.5416870  98.3800422 148.2370128 156.1478325  97.4794892 149.1612661
 152.6170000  98.4520000 149.6030000 153.5451500  98.9300745 147.5979185
 153.7164998  97.2188257 148.0919032 155.8577786  99.3929699 148.5080657
 155.9098866  98.1470970 147.2344997 155.7132520  97.6643657 150.0168065
 155.5190000  95.7850000 155.0460000 153.4650000  96.9320000 153.9300000
 153.5759214  98.1651885 154.8249740 152.7008707  95.8468749 154.6747234
 158.0808790  95.2545784 152.3937728 157.5142276  95.3740000 153.8190000
 156.0970000  95.3740000 153.8190000 156.2180000  94.4020000 153.8500000
 155.6931057  94.8251082 154.5462381 155.2993487  95.6344789 156.1047628
 154.6104599  98.5303217 154.7817677 153.3183039  97.8765211 155.8490313
 152.9184407  98.9481457 154.4492770 153.1079448  94.8730218 154.3817150
 151.6455256  95.9012270 154.4000774 152.8305857  96.0075068 155.7486063
 157.6899904  96.0674292 151.7709391 159.1741579  95.3113141 152.4157570
 157.8633253  96.3037113 154.2773684 157.8597374  94.5534533 154.4565830
 155.7926078  96.3055210 153.8190000 157.0680000  92.9490000 153.9910000
 153.5870000  98.5690000 162.7880000 154.0250000  98.2470000 161.4700000
 155.5416870  98.3800422 161.4020128 156.1478325  97.4794892 162.3262661
 152.6170000  98.4520000 162.7680000 153.5451500  98.9300745 160.7629185
 153.7164998  97.2188257 161.2569032 155.8577786  99.3929699 161.6730657
 155.9098866  98.1470970 160.3994997 155.7132520  97.6643657 163.1818065
 155.5190000  95.7850000 168.2110000 153.4650000  96.9320000 167.0950000
 153.5759214  98.1651885 167.9899740 152.7008707  95.8468749 167.8397234
 158.0808790  95.2545784 165.5587728 157.5142276  95.3740000 166.9840000
 156.0970000  95.3740000 166.9840000 156.2180000  94.4020000 167.0150000
 155.6931057  94.8251082 167.7112381 155.2993487  95.6344789 169.2697628
 154.6104599  98.5303217 167.9467677 153.3183039  97.8765211 169.0140313
 152.9184407  98.9481457 167.6142770 153.1079448  94.8730218 167.5467150
 151.6455256  95.9012270 167.5650774 152.8305857  96.0075068 168.9136063
 157.6899904  96.0674292 164.9359391 159.1741579  95.3113141 165.5807570
 157.8633253  96.3037113 167.4423684 157.8597374  94.5534533 167.6215830
 155.7926078  96.3055210 166.9840000 157.0680000  92.9490000 167.1560000
 153.5870000  98.5690000 175.9530000 154.0250000  98.2470000 174.6350000
 155.5416870  98.3800422 174.5670128 156.1478325  97.4794892 175.4912661
 152.6170000  98.4520000 175.9330000 153.5451500  98.9300745 173.9279185
 153.7164998  97.2188257 174.4219032 155.8577786  99.3929699 174.8380657
 155.9098866  98.1470970 173.5644997 155.7132520  97.6643657 176.3468065
 155.5190000  95.7850000 181.3770000 153.4650000  96.9320000 180.2610000
 153.5759214  98.1651885 181.1559740 152.7008707  95.8468749 181.0057234
 158.0808790  95.2545784 178.7247728 157.5142276  95.3740000 180.1500000
 156.0970000  95.3740000 180.1500000 156.2180000  94.4020000 180.1810000
 155.6931057  94.8251082 180.8772381 155.2993487  95.6344789 182.4357628
 154.6104599  98.5303217 181.1127677 153.3183039  97.8765211 182.1800313
 152.9184407  98.9481457 180.7802770 153.1079448  94.8730218 180.7127150
 151.6455256  95.9012270 180.7310774 152.8305857  96.0075068 182.0796063
 157.6899904  96.0674292 178.1019391 159.1741579  95.3113141 178.7467570
 157.8633253  96.3037113 180.6083684 157.8597374  94.5534533 180.7875830
 155.7926078  96.3055210 180.1500000 157.0680000  92.9490000 180.3220000
 153.5870000  98.5690000 189.1190000 154.0250000  98.2470000 187.8010000
 155.5416870  98.3800422 187.7330128 156.1478325  97.4794892 188.6572661
 152.6170000  98.4520000 189.0990000 153.5451500  98.9300745 187.0939185
 153.7164998  97.2188257 187.5879032 155.8577786  99.3929699 188.0040657
 155.9098866  98.1470970 186.7304997 155.7132520  97.6643657 189.5128065
 155.5190000  95.7850000 194.5420000 153.4650000  96.9320000 193.4260000
 153.5759214  98.1651885 194.3209740 152.7008707  95.8468749 194.1707234
 158.0808790  95.2545784 191.8897728 157.5142276  95.3740000 193.3150000
 156.0970000  95.3740000 193.3150000 156.2180000  94.4020000 193.3460000
 155.6931057  94.8251082 194.0422381 155.2993487  95.6344789 195.6007628
 154.6104599  98.5303217 194.2777677 153.3183039  97.8765211 195.3450313
 152.9184407  98.9481457 193.9452770 153.1079448  94.8730218 193.8777150
 151.6455256  95.9012270 193.8960774 152.8305857  96.0075068 195.2446063
 157.6899904  96.0674292 191.2669391 159.1741579  95.3113141 191.9117570
 157.8633253  96.3037113 193.7733684 157.8597374  94.5534533 193.9525830
 155.7926078  96.3055210 193.3150000 157.0680000  92.9490000 193.4870000
 153.5870000  98.5690000 202.2840000 154.0250000  98.2470000 200.9660000
 155.5416870  98.3800422 200.8980128 156.1478325  97.4794892 201.8222661
 152.6170000  98.4520000 202.2640000 153.5451500  98.9300745 200.2589185
 153.7164998  97.2188257 200.7529032 155.8577786  99.3929699 201.1690657
 155.9098866  98.1470970 199.8954997 155.7132520  97.6643657 202.6778065
 155.5190000 103.1020000  76.0550000 153.4650000 104.2490000  74.9390000
 153.5759214 105.4821885  75.8339740 152.7008707 103.1638749  75.6837234
 158.0808790 102.5715784  73.4027728 157.5142276 102.6910000  74.8280000
 156.0970000 102.6910000  74.8280000 156.2180000 101.7190000  74.8590000
 155.6931057 102.1421082  75.5552381 155.2993487 102.9514789  77.1137628
 154.6104599 105.8473217  75.7907677 153.3183039 105.1935211  76.8580313
 152.9184407 106.2651457  75.4582770 153.1079448 102.1900218  75.3907150
 151.6455256 103.2182270  75.4090774 152.8305857 103.3245068  76.7576063
 157.6899904 103.3844292  72.7799391 159.1741579 102.6283141  73.4247570
 157.8633253 103.6207113  75.2863684 157.8597374 101.8704533  75.4655830
 155.7926078 103.6225210  74.8280000 157.0680000 100.2660000  75.0000000
 153.5870000 105.8860000  83.7970000 154.0250000 105.5640000  82.4790000
 155.5416870 105.6970422  82.4110128 156.1478325 104.7964892  83.3352661
 152.6170000 105.7690000  83.7770000 153.5451500 106.2470745  81.7719185
 153.7164998 104.5358257  82.2659032 155.8577786 106.7099699  82.6820657
 155.9098866 105.4640970  81.4084997 155.7132520 104.9813657  84.1908065
 155.5190000 103.1020000  89.2200000 153.4650000 104.2490000  88.1040000
 153.5759214 105.4821885  88.9989740 152.7008707 103.1638749  88.8487234
 158.0808790 102.5715784  86.5677728 157.5142276 102.6910000  87.9930000
 156.0970000 102.6910000  87.9930000 156.2180000 101.7190000  88.0240000
 155.6931057 102.1421082  88.7202381 155.2993487 102.9514789  90.2787628
 154.6104599 105.8473217  88.9557677 153.3183039 105.1935211  90.0230313
 152.9184407 106.2651457  88.6232770 153.1079448 102.1900218  88.5557150
 151.6455256 103.2182270  88.5740774 152.8305857 103.3245068  89.9226063
 157.6899904 103.3844292  85.9449391 159.1741579 102.6283141  86.5897570
 157.8633253 103.6207113  88.4513684 157.8597374 101.8704533  88.6305830
 155.7926078 103.6225210  87.9930000 157.0680000 100.2660000  88.1650000
 153.5870000 105.8860000  96.9620000 154.0250000 105.5640000  95.6440000
 155.5416870 105.6970422  95.5760128 156.1478325 104.7964892  96.5002661
 152.6170000 105.7690000  96.9420000 153.5451500 106.2470745  94.9369185
 153.7164998 104.5358257  95.4309032 155.8577786 106.7099699  95.8470657
 155.9098866 105.4640970  94.5734997 155.7132520 104.9813657  97.3558065
 155.5190000 103.1020000 102.3850000 153.4650000 104.2490000 101.2690000
 153.5759214 105.4821885 102.1639740 152.7008707 103.1638749 102.0137234
 158.0808790 102.5715784  99.7327728 157.5142276 102.6910000 101.1580000
 156.0970000 102.6910000 101.1580000 156.2180000 101.7190000 101.1890000
 155.6931057 102.1421082 101.8852381 155.2993487 102.9514789 103.4437628
 154.6104599 105.8473217 102.1207677 153.3183039 105.1935211 103.1880313
 152.9184407 106.2651457 101.7882770 153.1079448 102.1900218 101.7207150
 151.6455256 103.2182270 101.7390774 152.8305857 103.3245068 103.0876063
 157.6899904 103.3844292  99.1099391 159.1741579 102.6283141  99.7547570
 157.8633253 103.6207113 101.6163684 157.8597374 101.8704533 101.7955830
 155.7926078 103.6225210 101.1580000 157.0680000 100.2660000 101.3300000
 153.5870000 105.8860000 110.1270000 154.0250000 105.5640000 108.8090000
 155.5416870 105.6970422 108.7410128 156.1478325 104.7964892 109.6652661
 152.6170000 105.7690000 110.1070000 153.5451500 106.2470745 108.1019185
 153.7164998 104.5358257 108.5959032 155.8577786 106.7099699 109.0120657
 155.9098866 105.4640970 107.7384997 155.7132520 104.9813657 110.5208065
 155.5190000 103.1020000 115.5510000 153.4650000 104.2490000 114.4350000
 153.5759214 105.4821885 115.3299740 152.7008707 103.1638749 115.1797234
 158.0808790 102.5715784 112.8987728 157.5142276 102.6910000 114.3240000
 156.0970000 102.6910000 114.3240000 156.2180000 101.7190000 114.3550000
 155.6931057 102.1421082 115.0512381 155.2993487 102.9514789 116.6097628
 154.6104599 105.8473217 115.2867677 153.3183039 105.1935211 116.3540313
 152.9184407 106.2651457 114.9542770 153.1079448 102.1900218 114.8867150
 151.6455256 103.2182270 114.9050774 152.8305857 103.3245068 116.2536063
 157.6899904 103.3844292 112.2759391 159.1741579 102.6283141 112.9207570
 157.8633253 103.6207113 114.7823684 157.8597374 101.8704533 114.9615830
 155.7926078 103.6225210 114.3240000 157.0680000 100.2660000 114.4960000
 153.5870000 105.8860000 123.2930000 154.0250000 105.5640000 121.9750000
 155.5416870 105.6970422 121.9070128 156.1478325 104.7964892 122.8312661
 152.6170000 105.7690000 123.2730000 153.5451500 106.2470745 121.2679185
 153.7164998 104.5358257 121.7619032 155.8577786 106.7099699 122.1780657
 155.9098866 105.4640970 120.9044997 155.7132520 104.9813657 123.6868065
 155.5190000 103.1020000 128.7160000 153.4650000 104.2490000 127.6000000
 153.5759214 105.4821885 128.4949740 152.7008707 103.1638749 128.3447234
 158.0808790 102.5715784 126.0637728 157.5142276 102.6910000 127.4890000
 156.0970000 102.6910000 127.4890000 156.2180000 101.7190000 127.5200000
 155.6931057 102.1421082 128.2162381 155.2993487 102.9514789 129.7747628
 154.6104599 105.8473217 128.4517677 153.3183039 105.1935211 129.5190313
 152.9184407 106.2651457 128.1192770 153.1079448 102.1900218 128.0517150
 151.6455256 103.2182270 128.0700774 152.8305857 103.3245068 129.4186063
 157.6899904 103.3844292 125.4409391 159.1741579 102.6283141 126.0857570
 157.8633253 103.6207113 127.9473684 157.8597374 101.8704533 128.1265830
 155.7926078 103.6225210 127.4890000 157.0680000 100.2660000 127.6610000
 153.5870000 105.8860000 136.4580000 154.0250000 105.5640000 135.1400000
 155.5416870 105.6970422 135.0720128 156.1478325 104.7964892 135.9962661
 152.6170000 105.7690000 136.4380000 153.5451500 106.2470745 134.4329185
 153.7164998 104.5358257 134.9269032 155.8577786 106.7099699 135.3430657
 155.9098866 105.4640970 134.0694997 155.7132520 104.9813657 136.8518065
 155.5190000 103.1020000 141.8810000 153.4650000 104.2490000 140.7650000
 153.5759214 105.4821885 141.6599740 152.7008707 103.1638749 141.5097234
 158.0808790 102.5715784 139.2287728 157.5142276 102.6910000 140.6540000
 156.0970000 102.6910000 140.6540000 156.2180000 101.7190000 140.6850000
 155.6931057 102.1421082 141.3812381 155.2993487 102.9514789 142.9397628
 154.6104599 105.8473217 141.6167677 153.3183039 105.1935211 142.6840313
 152.9184407 106.2651457 141.2842770 153.1079448 102.1900218 141.2167150
 151.6455256 103.2182270 141.2350774 152.8305857 103.3245068 142.5836063
 157.6899904 103.3844292 138.6059391 159.1741579 102.6283141 139.2507570
 157.8633253 103.6207113 141.1123684 157.8597374 101.8704533 141.2915830
 155.7926078 103.6225210 140.6540000 157.0680000 100.2660000 140.8260000
 153.5870000 105.8860000 149.6230000 154.0250000 105.5640000 148.3050000
 155.5416870 105.6970422 148.2370128 156.1478325 104.7964892 149.1612661
 152.6170000 105.7690000 149.6030000 153.5451500 106.2470745 147.5979185
 153.7164998 104.5358257 148.0919032 155.8577786 106.7099699 148.5080657
 155.9098866 105.4640970 147.2344997 155.7132520 104.9813657 150.0168065
 155.5190000 103.1020000 155.0460000 153.4650000 104.2490000 153.9300000
 153.5759214 105.4821885 154.8249740 152.7008707 103.1638749 154.6747234
 158.0808790 102.5715784 152.3937728 157.5142276 102.6910000 153.8190000
 156.0970000 102.6910000 153.8190000 156.2180000 101.7190000 153.8500000
 155.6931057 102.1421082 154.5462381 155.2993487 102.9514789 156.1047628
 154.6104599 105.8473217 154.7817677 153.3183039 105.1935211 155.8490313
 152.9184407 106.2651457 154.4492770 153.1079448 102.1900218 154.3817150
 151.6455256 103.2182270 154.4000774 152.8305857 103.3245068 155.7486063
 157.6899904 103.3844292 151.7709391 159.1741579 102.6283141 152.4157570
 157.8633253 103.6207113 154.2773684 157.8597374 101.8704533 154.4565830
 155.7926078 103.6225210 153.8190000 157.0680000 100.2660000 153.9910000
 153.5870000 105.8860000 162.7880000 154.0250000 105.5640000 161.4700000
 155.5416870 105.6970422 161.4020128 156.1478325 104.7964892 162.3262661
 152.6170000 105.7690000 162.7680000 153.5451500 106.2470745 160.7629185
 153.7164998 104.5358257 161.2569032 155.8577786 106.7099699 161.6730657
 155.9098866 105.4640970 160.3994997 155.7132520 104.9813657 163.1818065
 155.5190000 103.1020000 168.2110000 153.4650000 104.2490000 167.0950000
 153.5759214 105.4821885 167.9899740 152.7008707 103.1638749 167.8397234
 158.0808790 102.5715784 165.5587728 157.5142276 102.6910000 166.9840000
 156.0970000 102.6910000 166.9840000 156.2180000 101.7190000 167.0150000
 155.6931057 102.1421082 167.7112381 155.2993487 102.9514789 169.2697628
 154.6104599 105.8473217 167.9467677 153.3183039 105.1935211 169.0140313
 152.9184407 106.2651457 167.6142770 153.1079448 102.1900218 167.5467150
 151.6455256 103.2182270 167.5650774 152.8305857 103.3245068 168.9136063
 157.6899904 103.3844292 164.9359391 159.1741579 102.6283141 165.5807570
 157.8633253 103.6207113 167.4423684 157.8597374 101.8704533 167.6215830
 155.7926078 103.6225210 166.9840000 157.0680000 100.2660000 167.1560000
 153.5870000 105.8860000 175.9530000 154.0250000 105.5640000 174.6350000
 155.5416870 105.6970422 174.5670128 156.1478325 104.7964892 175.4912661
 152.6170000 105.7690000 175.9330000 153.5451500 106.2470745 173.9279185
 153.7164998 104.5358257 174.4219032 155.8577786 106.7099699 174.8380657
 155.9098866 105.4640970 173.5644997 155.7132520 104.9813657 176.3468065
 155.5190000 103.1020000 181.3770000 153.4650000 104.2490000 180.2610000
 153.5759214 105.4821885 181.1559740 152.7008707 103.1638749 181.0057234
 158.0808790 102.5715784 178.7247728 157.5142276 102.6910000 180.1500000
 156.0970000 102.6910000 180.1500000 156.2180000 101.7190000 180.1810000
 155.6931057 102.1421082 180.8772381 155.2993487 102.9514789 182.4357628
 154.6104599 105.8473217 181.1127677 153.3183039 105.1935211 182.1800313
 152.9184407 106.2651457 180.7802770 153.1079448 102.1900218 180.7127150
 151.6455256 103.2182270 180.7310774 152.8305857 103.3245068 182.0796063
 157.6899904 103.3844292 178.1019391 159.1741579 102.6283141 178.7467570
 157.8633253 103.6207113 180.6083684 157.8597374 101.8704533 180.7875830
 155.7926078 103.6225210 180.1500000 157.0680000 100.2660000 180.3220000
 153.5870000 105.8860000 189.1190000 154.0250000 105.5640000 187.8010000
 155.5416870 105.6970422 187.7330128 156.1478325 104.7964892 188.6572661
 152.6170000 105.7690000 189.0990000 153.5451500 106.2470745 187.0939185
 153.7164998 104.5358257 187.5879032 155.8577786 106.7099699 188.0040657
 155.9098866 105.4640970 186.7304997 155.7132520 104.9813657 189.5128065
 155.5190000 103.1020000 194.5420000 153.4650000 104.2490000 193.4260000
 153.5759214 105.4821885 194.3209740 152.7008707 103.1638749 194.1707234
 158.0808790 102.5715784 191.8897728 157.5142276 102.6910000 193.3150000
 156.0970000 102.6910000 193.3150000 156.2180000 101.7190000 193.3460000
 155.6931057 102.1421082 194.0422381 155.2993487 102.9514789 195.6007628
 154.6104599 105.8473217 194.2777677 153.3183039 105.1935211 195.3450313
 152.9184407 106.2651457 193.9452770 153.1079448 102.1900218 193.8777150
 151.6455256 103.2182270 193.8960774 152.8305857 103.3245068 195.2446063
 157.6899904 103.3844292 191.2669391 159.1741579 102.6283141 191.9117570
 157.8633253 103.6207113 193.7733684 157.8597374 101.8704533 193.9525830
 155.7926078 103.6225210 193.3150000 157.0680000 100.2660000 193.4870000
 153.5870000 105.8860000 202.2840000 154.0250000 105.5640000 200.9660000
 155.5416870 105.6970422 200.8980128 156.1478325 104.7964892 201.8222661
 152.6170000 105.7690000 202.2640000 153.5451500 106.2470745 200.2589185
 153.7164998 104.5358257 200.7529032 155.8577786 106.7099699 201.1690657
 155.9098866 105.4640970 199.8954997 155.7132520 104.9813657 202.6778065
 155.5190000 110.4180000  76.0550000 153.4650000 111.5650000  74.9390000
 153.5759214 112.7981885  75.8339740 152.7008707 110.4798749  75.6837234
 158.0808790 109.8875784  73.4027728 157.5142276 110.0070000  74.8280000
 156.0970000 110.0070000  74.8280000 156.2180000 109.0350000  74.8590000
 155.6931057 109.4581082  75.5552381 155.2993487 110.2674789  77.1137628
 154.6104599 113.1633217  75.7907677 153.3183039 112.5095211  76.8580313
 152.9184407 113.5811457  75.4582770 153.1079448 109.5060218  75.3907150
 151.6455256 110.5342270  75.4090774 152.8305857 110.6405068  76.7576063
 157.6899904 110.7004292  72.7799391 159.1741579 109.9443141  73.4247570
 157.8633253 110.9367113  75.2863684 157.8597374 109.1864533  75.4655830
 155.7926078 110.9385210  74.8280000 157.0680000 107.5820000  75.0000000
 153.5870000 113.2020000  83.7970000 154.0250000 112.8800000  82.4790000
 155.5416870 113.0130422  82.4110128 156.1478325 112.1124892  83.3352661
 152.6170000 113.0850000  83.7770000 153.5451500 113.5630745  81.7719185
 153.7164998 111.8518257  82.2659032 155.8577786 114.0259699  82.6820657
 155.9098866 112.7800970  81.4084997 155.7132520 112.2973657  84.1908065
 155.5190000 110.4180000  89.2200000 153.4650000 111.5650000  88.1040000
 153.5759214 112.7981885  88.9989740 152.7008707 110.4798749  88.8487234
 158.0808790 109.8875784  86.5677728 157.5142276 110.0070000  87.9930000
 156.0970000 110.0070000  87.9930000 156.2180000 109.0350000  88.0240000
 155.6931057 109.4581082  88.7202381 155.2993487 110.2674789  90.2787628
 154.6104599 113.1633217  88.9557677 153.3183039 112.5095211  90.0230313
 152.9184407 113.5811457  88.6232770 153.1079448 109.5060218  88.5557150
 151.6455256 110.5342270  88.5740774 152.8305857 110.6405068  89.9226063
 157.6899904 110.7004292  85.9449391 159.1741579 109.9443141  86.5897570
 157.8633253 110.9367113  88.4513684 157.8597374 109.1864533  88.6305830
 155.7926078 110.9385210  87.9930000 157.0680000 107.5820000  88.1650000
 153.5870000 113.2020000  96.9620000 154.0250000 112.8800000  95.6440000
 155.5416870 113.0130422  95.5760128 156.1478325 112.1124892  96.5002661
 152.6170000 113.0850000  96.9420000 153.5451500 113.5630745  94.9369185
 153.7164998 111.8518257  95.4309032 155.8577786 114.0259699  95.8470657
 155.9098866 112.7800970  94.5734997 155.7132520 112.2973657  97.3558065
 155.5190000 110.4180000 102.3850000 153.4650000 111.5650000 101.2690000
 153.5759214 112.7981885 102.1639740 152.7008707 110.4798749 102.0137234
 158.0808790 109.8875784  99.7327728 157.5142276 110.0070000 101.1580000
 156.0970000 110.0070000 101.1580000 156.2180000 109.0350000 101.1890000
 155.6931057 109.4581082 101.8852381 155.2993487 110.2674789 103.4437628
 154.6104599 113.1633217 102.1207677 153.3183039 112.5095211 103.1880313
 152.9184407 113.5811457 101.7882770 153.1079448 109.5060218 101.7207150
 151.6455256 110.5342270 101.7390774 152.8305857 110.6405068 103.0876063
 157.6899904 110.7004292  99.1099391 159.1741579 109.9443141  99.7547570
 157.8633253 110.9367113 101.6163684 157.8597374 109.1864533 101.7955830
 155.7926078 110.9385210 101.1580000 157.0680000 107.5820000 101.3300000
 153.5870000 113.2020000 110.1270000 154.0250000 112.8800000 108.8090000
 155.5416870 113.0130422 108.7410128 156.1478325 112.1124892 109.6652661
 152.6170000 113.0850000 110.1070000 153.5451500 113.5630745 108.1019185
 153.7164998 111.8518257 108.5959032 155.8577786 114.0259699 109.0120657
 155.9098866 112.7800970 107.7384997 155.7132520 112.2973657 110.5208065
 155.5190000 110.4180000 115.5510000 153.4650000 111.5650000 114.4350000
 153.5759214 112.7981885 115.3299740 152.7008707 110.4798749 115.1797234
 158.0808790 109.8875784 112.8987728 157.5142276 110.0070000 114.3240000
 156.0970000 110.0070000 114.3240000 156.2180000 109.0350000 114.3550000
 155.6931057 109.4581082 115.0512381 155.2993487 110.2674789 116.6097628
 154.6104599 113.1633217 115.2867677 153.3183039 112.5095211 116.3540313
 152.9184407 113.5811457 114.9542770 153.1079448 109.5060218 114.8867150
 151.6455256 110.5342270 114.9050774 152.8305857 110.6405068 116.2536063
 157.6899904 110.7004292 112.2759391 159.1741579 109.9443141 112.9207570
 157.8633253 110.9367113 114.7823684 157.8597374 109.1864533 114.9615830
 155.7926078 110.9385210 114.3240000 157.0680000 107.5820000 114.4960000
 153.5870000 113.2020000 123.2930000 154.0250000 112.8800000 121.9750000
 155.5416870 113.0130422 121.9070128 156.1478325 112.1124892 122.8312661
 152.6170000 113.0850000 123.2730000 153.5451500 113.5630745 121.2679185
 153.7164998 111.8518257 121.7619032 155.8577786 114.0259699 122.1780657
 155.9098866 112.7800970 120.9044997 155.7132520 112.2973657 123.6868065
 155.5190000 110.4180000 128.7160000 153.4650000 111.5650000 127.6000000
 153.5759214 112.7981885 128.4949740 152.7008707 110.4798749 128.3447234
 158.0808790 109.8875784 126.0637728 157.5142276 110.0070000 127.4890000
 156.0970000 110.0070000 127.4890000 156.2180000 109.0350000 127.5200000
 155.6931057 109.4581082 128.2162381 155.2993487 110.2674789 129.7747628
 154.6104599 113.1633217 128.4517677 153.3183039 112.5095211 129.5190313
 152.9184407 113.5811457 128.1192770 153.1079448 109.5060218 128.0517150
 151.6455256 110.5342270 128.0700774 152.8305857 110.6405068 129.4186063
 157.6899904 110.7004292 125.4409391 159.1741579 109.9443141 126.0857570
 157.8633253 110.9367113 127.9473684 157.8597374 109.1864533 128.1265830
 155.7926078 110.9385210 127.4890000 157.0680000 107.5820000 127.6610000
 153.5870000 113.2020000 136.4580000 154.0250000 112.8800000 135.1400000
 155.5416870 113.0130422 135.0720128 156.1478325 112.1124892 135.9962661
 152.6170000 113.0850000 136.4380000 153.5451500 113.5630745 134.4329185
 153.7164998 111.8518257 134.9269032 155.8577786 114.0259699 135.3430657
 155.9098866 112.7800970 134.0694997 155.7132520 112.2973657 136.8518065
 155.5190000 110.4180000 141.8810000 153.4650000 111.5650000 140.7650000
 153.5759214 112.7981885 141.6599740 152.7008707 110.4798749 141.5097234
 158.0808790 109.8875784 139.2287728 157.5142276 110.0070000 140.6540000
 156.0970000 110.0070000 140.6540000 156.2180000 109.0350000 140.6850000
 155.6931057 109.4581082 141.3812381 155.2993487 110.2674789 142.9397628
 154.6104599 113.1633217 141.6167677 153.3183039 112.5095211 142.6840313
 152.9184407 113.5811457 141.2842770 153.1079448 109.5060218 141.2167150
 151.6455256 110.5342270 141.2350774 152.8305857 110.6405068 142.5836063
 157.6899904 110.7004292 138.6059391 159.1741579 109.9443141 139.2507570
 157.8633253 110.9367113 141.1123684 157.8597374 109.1864533 141.2915830
 155.7926078 110.9385210 140.6540000 157.0680000 107.5820000 140.8260000
 153.5870000 113.2020000 149.6230000 154.0250000 112.8800000 148.3050000
 155.5416870 113.0130422 148.2370128 156.1478325 112.1124892 149.1612661
 152.6170000 113.0850000 149.6030000 153.5451500 113.5630745 147.5979185
 153.7164998 111.8518257 148.0919032 155.8577786 114.0259699 148.5080657
 155.9098866 112.7800970 147.2344997 155.7132520 112.2973657 150.0168065
 155.5190000 110.4180000 155.0460000 153.4650000 111.5650000 153.9300000
 153.5759214 112.7981885 154.8249740 152.7008707 110.4798749 154.6747234
 158.0808790 109.8875784 152.3937728 157.5142276 110.0070000 153.8190000
 156.0970000 110.0070000 153.8190000 156.2180000 109.0350000 153.8500000
 155.6931057 109.4581082 154.5462381 155.2993487 110.2674789 156.1047628
 154.6104599 113.1633217 154.7817677 153.3183039 112.5095211 155.8490313
 152.9184407 113.5811457 154.4492770 153.1079448 109.5060218 154.3817150
 151.6455256 110.5342270 154.4000774 152.8305857 110.6405068 155.7486063
 157.6899904 110.7004292 151.7709391 159.1741579 109.9443141 152.4157570
 157.8633253 110.9367113 154.2773684 157.8597374 109.1864533 154.4565830
 155.7926078 110.9385210 153.8190000 157.0680000 107.5820000 153.9910000
 153.5870000 113.2020000 162.7880000 154.0250000 112.8800000 161.4700000
 155.5416870 113.0130422 161.4020128 156.1478325 112.1124892 162.3262661
 152.6170000 113.0850000 162.7680000 153.5451500 113.5630745 160.7629185
 153.7164998 111.8518257 161.2569032 155.8577786 114.0259699 161.6730657
 155.9098866 112.7800970 160.3994997 155.7132520 112.2973657 163.1818065
 155.5190000 110.4180000 168.2110000 153.4650000 111.5650000 167.0950000
 153.5759214 112.7981885 167.9899740 152.7008707 110.4798749 167.8397234
 158.0808790 109.8875784 165.5587728 157.5142276 110.0070000 166.9840000
 156.0970000 110.0070000 166.9840000 156.2180000 109.0350000 167.0150000
 155.6931057 109.4581082 167.7112381 155.2993487 110.2674789 169.2697628
 154.6104599 113.1633217 167.9467677 153.3183039 112.5095211 169.0140313
 152.9184407 113.5811457 167.6142770 153.1079448 109.5060218 167.5467150
 151.6455256 110.5342270 167.5650774 152.8305857 110.6405068 168.9136063
 157.6899904 110.7004292 164.9359391 159.1741579 109.9443141 165.5807570
 157.8633253 110.9367113 167.4423684 157.8597374 109.1864533 167.6215830
 155.7926078 110.9385210 166.9840000 157.0680000 107.5820000 167.1560000
 153.5870000 113.2020000 175.9530000 154.0250000 112.8800000 174.6350000
 155.5416870 113.0130422 174.5670128 156.1478325 112.1124892 175.4912661
 152.6170000 113.0850000 175.9330000 153.5451500 113.5630745 173.9279185
 153.7164998 111.8518257 174.4219032 155.8577786 114.0259699 174.8380657
 155.9098866 112.7800970 173.5644997 155.7132520 112.2973657 176.3468065
 155.5190000 110.4180000 181.3770000 153.4650000 111.5650000 180.2610000
 153.5759214 112.7981885 181.1559740 152.7008707 110.4798749 181.0057234
 158.0808790 109.8875784 178.7247728 157.5142276 110.0070000 180.1500000
 156.0970000 110.0070000 180.1500000 156.2180000 109.0350000 180.1810000
 155.6931057 109.4581082 180.8772381 155.2993487 110.2674789 182.4357628
 154.6104599 113.1633217 181.1127677 153.3183039 112.5095211 182.1800313
 152.9184407 113.5811457 180.7802770 153.1079448 109.5060218 180.7127150
 151.6455256 110.5342270 180.7310774 152.8305857 110.6405068 182.0796063
 157.6899904 110.7004292 178.1019391 159.1741579 109.9443141 178.7467570
 157.8633253 110.9367113 180.6083684 157.8597374 109.1864533 180.7875830
 155.7926078 110.9385210 180.1500000 157.0680000 107.5820000 180.3220000
 153.5870000 113.2020000 189.1190000 154.0250000 112.8800000 187.8010000
 155.5416870 113.0130422 187.7330128 156.1478325 112.1124892 188.6572661
 152.6170000 113.0850000 189.0990000 153.5451500 113.5630745 187.0939185
 153.7164998 111.8518257 187.5879032 155.8577786 114.0259699 188.0040657
 155.9098866 112.7800970 186.7304997 155.7132520 112.2973657 189.5128065
 155.5190000 110.4180000 194.5420000 153.4650000 111.5650000 193.4260000
 153.5759214 112.7981885 194.3209740 152.7008707 110.4798749 194.1707234
 158.0808790 109.8875784 191.8897728 157.5142276 110.0070000 193.3150000
 156.0970000 110.0070000 193.3150000 156.2180000 109.0350000 193.3460000
 155.6931057 109.4581082 194.0422381 155.2993487 110.2674789 195.6007628
 154.6104599 113.1633217 194.2777677 153.3183039 112.5095211 195.3450313
 152.9184407 113.5811457 193.9452770 153.1079448 109.5060218 193.8777150
 151.6455256 110.5342270 193.8960774 152.8305857 110.6405068 195.2446063
 157.6899904 110.7004292 191.2669391 159.1741579 109.9443141 191.9117570
 157.8633253 110.9367113 193.7733684 157.8597374 109.1864533 193.9525830
 155.7926078 110.9385210 193.3150000 157.0680000 107.5820000 193.4870000
 153.5870000 113.2020000 202.2840000 154.0250000 112.8800000 200.9660000
 155.5416870 113.0130422 200.8980128 156.1478325 112.1124892 201.8222661
 152.6170000 113.0850000 202.2640000 153.5451500 113.5630745 200.2589185
 153.7164998 111.8518257 200.7529032 155.8577786 114.0259699 201.1690657
 155.9098866 112.7800970 199.8954997 155.7132520 112.2973657 202.6778065
 155.5190000 117.7340000  76.0550000 153.4650000 118.8810000  74.9390000
 153.5759214 120.1141885  75.8339740 152.7008707 117.7958749  75.6837234
 158.0808790 117.2035784  73.4027728 157.5142276 117.3230000  74.8280000
 156.0970000 117.3230000  74.8280000 156.2180000 116.3510000  74.8590000
 155.6931057 116.7741082  75.5552381 155.2993487 117.5834789  77.1137628
 154.6104599 120.4793217  75.7907677 153.3183039 119.8255211  76.8580313
 152.9184407 120.8971457  75.4582770 153.1079448 116.8220218  75.3907150
 151.6455256 117.8502270  75.4090774 152.8305857 117.9565068  76.7576063
 157.6899904 118.0164292  72.7799391 159.1741579 117.2603141  73.4247570
 157.8633253 118.2527113  75.2863684 157.8597374 116.5024533  75.4655830
 155.7926078 118.2545210  74.8280000 157.0680000 114.8980000  75.0000000
 153.5870000 120.5180000  83.7970000 154.0250000 120.1960000  82.4790000
 155.5416870 120.3290422  82.4110128 156.1478325 119.4284892  83.3352661
 152.6170000 120.4010000  83.7770000 153.5451500 120.8790745  81.7719185
 153.7164998 119.1678257  82.2659032 155.8577786 121.3419699  82.6820657
 155.9098866 120.0960970  81.4084997 155.7132520 119.6133657  84.1908065
 155.5190000 117.7340000  89.2200000 153.4650000 118.8810000  88.1040000
 153.5759214 120.1141885  88.9989740 152.7008707 117.7958749  88.8487234
 158.0808790 117.2035784  86.5677728 157.5142276 117.3230000  87.9930000
 156.0970000 117.3230000  87.9930000 156.2180000 116.3510000  88.0240000
 155.6931057 116.7741082  88.7202381 155.2993487 117.5834789  90.2787628
 154.6104599 120.4793217  88.9557677 153.3183039 119.8255211  90.0230313
 152.9184407 120.8971457  88.6232770 153.1079448 116.8220218  88.5557150
 151.6455256 117.8502270  88.5740774 152.8305857 117.9565068  89.9226063
 157.6899904 118.0164292  85.9449391 159.1741579 117.2603141  86.5897570
 157.8633253 118.2527113  88.4513684 157.8597374 116.5024533  88.6305830
 155.7926078 118.2545210  87.9930000 157.0680000 114.8980000  88.1650000
 153.5870000 120.5180000  96.9620000 154.0250000 120.1960000  95.6440000
 155.5416870 120.3290422  95.5760128 156.1478325 119.4284892  96.5002661
 152.6170000 120.4010000  96.9420000 153.5451500 120.8790745  94.9369185
 153.7164998 119.1678257  95.4309032 155.8577786 121.3419699  95.8470657
 155.9098866 120.0960970  94.5734997 155.7132520 119.6133657  97.3558065
 155.5190000 117.7340000 102.3850000 153.4650000 118.8810000 101.2690000
 153.5759214 120.1141885 102.1639740 152.7008707 117.7958749 102.0137234
 158.0808790 117.2035784  99.7327728 157.5142276 117.3230000 101.1580000
 156.0970000 117.3230000 101.1580000 156.2180000 116.3510000 101.1890000
 155.6931057 116.7741082 101.8852381 155.2993487 117.5834789 103.4437628
 154.6104599 120.4793217 102.1207677 153.3183039 119.8255211 103.1880313
 152.9184407 120.8971457 101.7882770 153.1079448 116.8220218 101.7207150
 151.6455256 117.8502270 101.7390774 152.8305857 117.9565068 103.0876063
 157.6899904 118.0164292  99.1099391 159.1741579 117.2603141  99.7547570
 157.8633253 118.2527113 101.6163684 157.8597374 116.5024533 101.7955830
 155.7926078 118.2545210 101.1580000 157.0680000 114.8980000 101.3300000
 153.5870000 120.5180000 110.1270000 154.0250000 120.1960000 108.8090000
 155.5416870 120.3290422 108.7410128 156.1478325 119.4284892 109.6652661
 152.6170000 120.4010000 110.1070000 153.5451500 120.8790745 108.1019185
 153.7164998 119.1678257 108.5959032 155.8577786 121.3419699 109.0120657
 155.9098866 120.0960970 107.7384997 155.7132520 119.6133657 110.5208065
 155.5190000 117.7340000 115.5510000 153.4650000 118.8810000 114.4350000
 153.5759214 120.1141885 115.3299740 152.7008707 117.7958749 115.1797234
 158.0808790 117.2035784 112.8987728 157.5142276 117.3230000 114.3240000
 156.0970000 117.3230000 114.3240000 156.2180000 116.3510000 114.3550000
 155.6931057 116.7741082 115.0512381 155.2993487 117.5834789 116.6097628
 154.6104599 120.4793217 115.2867677 153.3183039 119.8255211 116.3540313
 152.9184407 120.8971457 114.9542770 153.1079448 116.8220218 114.8867150
 151.6455256 117.8502270 114.9050774 152.8305857 117.9565068 116.2536063
 157.6899904 118.0164292 112.2759391 159.1741579 117.2603141 112.9207570
 157.8633253 118.2527113 114.7823684 157.8597374 116.5024533 114.9615830
 155.7926078 118.2545210 114.3240000 157.0680000 114.8980000 114.4960000
 153.5870000 120.5180000 123.2930000 154.0250000 120.1960000 121.9750000
 155.5416870 120.3290422 121.9070128 156.1478325 119.4284892 122.8312661
 152.6170000 120.4010000 123.2730000 153.5451500 120.8790745 121.2679185
 153.7164998 119.1678257 121.7619032 155.8577786 121.3419699 122.1780657
 155.9098866 120.0960970 120.9044997 155.7132520 119.6133657 123.6868065
 155.5190000 117.7340000 128.7160000 153.4650000 118.8810000 127.6000000
 153.5759214 120.1141885 128.4949740 152.7008707 117.7958749 128.3447234
 158.0808790 117.2035784 126.0637728 157.5142276 117.3230000 127.4890000
 156.0970000 117.3230000 127.4890000 156.2180000 116.3510000 127.5200000
 155.6931057 116.7741082 128.2162381 155.2993487 117.5834789 129.7747628
 154.6104599 120.4793217 128.4517677 153.3183039 119.8255211 129.5190313
 152.9184407 120.8971457 128.1192770 153.1079448 116.8220218 128.0517150
 151.6455256 117.8502270 128.0700774 152.8305857 117.9565068 129.4186063
 157.6899904 118.0164292 125.4409391 159.1741579 117.2603141 126.0857570
 157.8633253 118.2527113 127.9473684 157.8597374 116.5024533 128.1265830
 155.7926078 118.2545210 127.4890000 157.0680000 114.8980000 127.6610000
 153.5870000 120.5180000 136.4580000 154.0250000 120.1960000 135.1400000
 155.5416870 120.3290422 135.0720128 156.1478325 119.4284892 135.9962661
 152.6170000 120.4010000 136.4380000 153.5451500 120.8790745 134.4329185
 153.7164998 119.1678257 134.9269032 155.8577786 121.3419699 135.3430657
 155.9098866 120.0960970 134.0694997 155.7132520 119.6133657 136.8518065
 155.5190000 117.7340000 141.8810000 153.4650000 118.8810000 140.7650000
 153.5759214 120.1141885 141.6599740 152.7008707 117.7958749 141.5097234
 158.0808790 117.2035784 139.2287728 157.5142276 117.3230000 140.6540000
 156.0970000 117.3230000 140.6540000 156.2180000 116.3510000 140.6850000
 155.6931057 116.7741082 141.3812381 155.2993487 117.5834789 142.9397628
 154.6104599 120.4793217 141.6167677 153.3183039 119.8255211 142.6840313
 152.9184407 120.8971457 141.2842770 153.1079448 116.8220218 141.2167150
 151.6455256 117.8502270 141.2350774 152.8305857 117.9565068 142.5836063
 157.6899904 118.0164292 138.6059391 159.1741579 117.2603141 139.2507570
 157.8633253 118.2527113 141.1123684 157.8597374 116.5024533 141.2915830
 155.7926078 118.2545210 140.6540000 157.0680000 114.8980000 140.8260000
 153.5870000 120.5180000 149.6230000 154.0250000 120.1960000 148.3050000
 155.5416870 120.3290422 148.2370128 156.1478325 119.4284892 149.1612661
 152.6170000 120.4010000 149.6030000 153.5451500 120.8790745 147.5979185
 153.7164998 119.1678257 148.0919032 155.8577786 121.3419699 148.5080657
 155.9098866 120.0960970 147.2344997 155.7132520 119.6133657 150.0168065
 155.5190000 117.7340000 155.0460000 153.4650000 118.8810000 153.9300000
 153.5759214 120.1141885 154.8249740 152.7008707 117.7958749 154.6747234
 158.0808790 117.2035784 152.3937728 157.5142276 117.3230000 153.8190000
 156.0970000 117.3230000 153.8190000 156.2180000 116.3510000 153.8500000
 155.6931057 116.7741082 154.5462381 155.2993487 117.5834789 156.1047628
 154.6104599 120.4793217 154.7817677 153.3183039 119.8255211 155.8490313
 152.9184407 120.8971457 154.4492770 153.1079448 116.8220218 154.3817150
 151.6455256 117.8502270 154.4000774 152.8305857 117.9565068 155.7486063
 157.6899904 118.0164292 151.7709391 159.1741579 117.2603141 152.4157570
 157.8633253 118.2527113 154.2773684 157.8597374 116.5024533 154.4565830
 155.7926078 118.2545210 153.8190000 157.0680000 114.8980000 153.9910000
 153.5870000 120.5180000 162.7880000 154.0250000 120.1960000 161.4700000
 155.5416870 120.3290422 161.4020128 156.1478325 119.4284892 162.3262661
 152.6170000 120.4010000 162.7680000 153.5451500 120.8790745 160.7629185
 153.7164998 119.1678257 161.2569032 155.8577786 121.3419699 161.6730657
 155.9098866 120.0960970 160.3994997 155.7132520 119.6133657 163.1818065
 155.5190000 117.7340000 168.2110000 153.4650000 118.8810000 167.0950000
 153.5759214 120.1141885 167.9899740 152.7008707 117.7958749 167.8397234
 158.0808790 117.2035784 165.5587728 157.5142276 117.3230000 166.9840000
 156.0970000 117.3230000 166.9840000 156.2180000 116.3510000 167.0150000
 155.6931057 116.7741082 167.7112381 155.2993487 117.5834789 169.2697628
 154.6104599 120.4793217 167.9467677 153.3183039 119.8255211 169.0140313
 152.9184407 120.8971457 167.6142770 153.1079448 116.8220218 167.5467150
 151.6455256 117.8502270 167.5650774 152.8305857 117.9565068 168.9136063
 157.6899904 118.0164292 164.9359391 159.1741579 117.2603141 165.5807570
 157.8633253 118.2527113 167.4423684 157.8597374 116.5024533 167.6215830
 155.7926078 118.2545210 166.9840000 157.0680000 114.8980000 167.1560000
 153.5870000 120.5180000 175.9530000 154.0250000 120.1960000 174.6350000
 155.5416870 120.3290422 174.5670128 156.1478325 119.4284892 175.4912661
 152.6170000 120.4010000 175.9330000 153.5451500 120.8790745 173.9279185
 153.7164998 119.1678257 174.4219032 155.8577786 121.3419699 174.8380657
 155.9098866 120.0960970 173.5644997 155.7132520 119.6133657 176.3468065
 155.5190000 117.7340000 181.3770000 153.4650000 118.8810000 180.2610000
 153.5759214 120.1141885 181.1559740 152.7008707 117.7958749 181.0057234
 158.0808790 117.2035784 178.7247728 157.5142276 117.3230000 180.1500000
 156.0970000 117.3230000 180.1500000 156.2180000 116.3510000 180.1810000
 155.6931057 116.7741082 180.8772381 155.2993487 117.5834789 182.4357628
 154.6104599 120.4793217 181.1127677 153.3183039 119.8255211 182.1800313
 152.9184407 120.8971457 180.7802770 153.1079448 116.8220218 180.7127150
 151.6455256 117.8502270 180.7310774 152.8305857 117.9565068 182.0796063
 157.6899904 118.0164292 178.1019391 159.1741579 117.2603141 178.7467570
 157.8633253 118.2527113 180.6083684 157.8597374 116.5024533 180.7875830
 155.7926078 118.2545210 180.1500000 157.0680000 114.8980000 180.3220000
 153.5870000 120.5180000 189.1190000 154.0250000 120.1960000 187.8010000
 155.5416870 120.3290422 187.7330128 156.1478325 119.4284892 188.6572661
 152.6170000 120.4010000 189.0990000 153.5451500 120.8790745 187.0939185
 153.7164998 119.1678257 187.5879032 155.8577786 121.3419699 188.0040657
 155.9098866 120.0960970 186.7304997 155.7132520 119.6133657 189.5128065
 155.5190000 117.7340000 194.5420000 153.4650000 118.8810000 193.4260000
 153.5759214 120.1141885 194.3209740 152.7008707 117.7958749 194.1707234
 158.0808790 117.2035784 191.8897728 157.5142276 117.3230000 193.3150000
 156.0970000 117.3230000 193.3150000 156.2180000 116.3510000 193.3460000
 155.6931057 116.7741082 194.0422381 155.2993487 117.5834789 195.6007628
 154.6104599 120.4793217 194.2777677 153.3183039 119.8255211 195.3450313
 152.9184407 120.8971457 193.9452770 153.1079448 116.8220218 193.8777150
 151.6455256 117.8502270 193.8960774 152.8305857 117.9565068 195.2446063
 157.6899904 118.0164292 191.2669391 159.1741579 117.2603141 191.9117570
 157.8633253 118.2527113 193.7733684 157.8597374 116.5024533 193.9525830
 155.7926078 118.2545210 193.3150000 157.0680000 114.8980000 193.4870000
 153.5870000 120.5180000 202.2840000 154.0250000 120.1960000 200.9660000
 155.5416870 120.3290422 200.8980128 156.1478325 119.4284892 201.8222661
 152.6170000 120.4010000 202.2640000 153.5451500 120.8790745 200.2589185
 153.7164998 119.1678257 200.7529032 155.8577786 121.3419699 201.1690657
 155.9098866 120.0960970 199.8954997 155.7132520 119.6133657 202.6778065
 155.5190000 125.0510000  76.0550000 153.4650000 126.1980000  74.9390000
 153.5759214 127.4311885  75.8339740 152.7008707 125.1128749  75.6837234
 158.0808790 124.5205784  73.4027728 157.5142276 124.6400000  74.8280000
 156.0970000 124.6400000  74.8280000 156.2180000 123.6680000  74.8590000
 155.6931057 124.0911082  75.5552381 155.2993487 124.9004789  77.1137628
 154.6104599 127.7963217  75.7907677 153.3183039 127.1425211  76.8580313
 152.9184407 128.2141457  75.4582770 153.1079448 124.1390218  75.3907150
 151.6455256 125.1672270  75.4090774 152.8305857 125.2735068  76.7576063
 157.6899904 125.3334292  72.7799391 159.1741579 124.5773141  73.4247570
 157.8633253 125.5697113  75.2863684 157.8597374 123.8194533  75.4655830
 155.7926078 125.5715210  74.8280000 157.0680000 122.2150000  75.0000000
 153.5870000 127.8350000  83.7970000 154.0250000 127.5130000  82.4790000
 155.5416870 127.6460422  82.4110128 156.1478325 126.7454892  83.3352661
 152.6170000 127.7180000  83.7770000 153.5451500 128.1960745  81.7719185
 153.7164998 126.4848257  82.2659032 155.8577786 128.6589699  82.6820657
 155.9098866 127.4130970  81.4084997 155.7132520 126.9303657  84.1908065
 155.5190000 125.0510000  89.2200000 153.4650000 126.1980000  88.1040000
 153.5759214 127.4311885  88.9989740 152.7008707 125.1128749  88.8487234
 158.0808790 124.5205784  86.5677728 157.5142276 124.6400000  87.9930000
 156.0970000 124.6400000  87.9930000 156.2180000 123.6680000  88.0240000
 155.6931057 124.0911082  88.7202381 155.2993487 124.9004789  90.2787628
 154.6104599 127.7963217  88.9557677 153.3183039 127.1425211  90.0230313
 152.9184407 128.2141457  88.6232770 153.1079448 124.1390218  88.5557150
 151.6455256 125.1672270  88.5740774 152.8305857 125.2735068  89.9226063
 157.6899904 125.3334292  85.9449391 159.1741579 124.5773141  86.5897570
 157.8633253 125.5697113  88.4513684 157.8597374 123.8194533  88.6305830
 155.7926078 125.5715210  87.9930000 157.0680000 122.2150000  88.1650000
 153.5870000 127.8350000  96.9620000 154.0250000 127.5130000  95.6440000
 155.5416870 127.6460422  95.5760128 156.1478325 126.7454892  96.5002661
 152.6170000 127.7180000  96.9420000 153.5451500 128.1960745  94.9369185
 153.7164998 126.4848257  95.4309032 155.8577786 128.6589699  95.8470657
 155.9098866 127.4130970  94.5734997 155.7132520 126.9303657  97.3558065
 155.5190000 125.0510000 102.3850000 153.4650000 126.1980000 101.2690000
 153.5759214 127.4311885 102.1639740 152.7008707 125.1128749 102.0137234
 158.0808790 124.5205784  99.7327728 157.5142276 124.6400000 101.1580000
 156.0970000 124.6400000 101.1580000 156.2180000 123.6680000 101.1890000
 155.6931057 124.0911082 101.8852381 155.2993487 124.9004789 103.4437628
 154.6104599 127.7963217 102.1207677 153.3183039 127.1425211 103.1880313
 152.9184407 128.2141457 101.7882770 153.1079448 124.1390218 101.7207150
 151.6455256 125.1672270 101.7390774 152.8305857 125.2735068 103.0876063
 157.6899904 125.3334292  99.1099391 159.1741579 124.5773141  99.7547570
 157.8633253 125.5697113 101.6163684 157.8597374 123.8194533 101.7955830
 155.7926078 125.5715210 101.1580000 157.0680000 122.2150000 101.3300000
 153.5870000 127.8350000 110.1270000 154.0250000 127.5130000 108.8090000
 155.5416870 127.6460422 108.7410128 156.1478325 126.7454892 109.6652661
 152.6170000 127.7180000 110.1070000 153.5451500 128.1960745 108.1019185
 153.7164998 126.4848257 108.5959032 155.8577786 128.6589699 109.0120657
 155.9098866 127.4130970 107.7384997 155.7132520 126.9303657 110.5208065
 155.5190000 125.0510000 115.5510000 153.4650000 126.1980000 114.4350000
 153.5759214 127.4311885 115.3299740 152.7008707 125.1128749 115.1797234
 158.0808790 124.5205784 112.8987728 157.5142276 124.6400000 114.3240000
 156.0970000 124.6400000 114.3240000 156.2180000 123.6680000 114.3550000
 155.6931057 124.0911082 115.0512381 155.2993487 124.9004789 116.6097628
 154.6104599 127.7963217 115.2867677 153.3183039 127.1425211 116.3540313
 152.9184407 128.2141457 114.9542770 153.1079448 124.1390218 114.8867150
 151.6455256 125.1672270 114.9050774 152.8305857 125.2735068 116.2536063
 157.6899904 125.3334292 112.2759391 159.1741579 124.5773141 112.9207570
 157.8633253 125.5697113 114.7823684 157.8597374 123.8194533 114.9615830
 155.7926078 125.5715210 114.3240000 157.0680000 122.2150000 114.4960000
 153.5870000 127.8350000 123.2930000 154.0250000 127.5130000 121.9750000
 155.5416870 127.6460422 121.9070128 156.1478325 126.7454892 122.8312661
 152.6170000 127.7180000 123.2730000 153.5451500 128.1960745 121.2679185
 153.7164998 126.4848257 121.7619032 155.8577786 128.6589699 122.1780657
 155.9098866 127.4130970 120.9044997 155.7132520 126.9303657 123.6868065
 155.5190000 125.0510000 128.7160000 153.4650000 126.1980000 127.6000000
 153.5759214 127.4311885 128.4949740 152.7008707 125.1128749 128.3447234
 158.0808790 124.5205784 126.0637728 157.5142276 124.6400000 127.4890000
 156.0970000 124.6400000 127.4890000 156.2180000 123.6680000 127.5200000
 155.6931057 124.0911082 128.2162381 155.2993487 124.9004789 129.7747628
 154.6104599 127.7963217 128.4517677 153.3183039 127.1425211 129.5190313
 152.9184407 128.2141457 128.1192770 153.1079448 124.1390218 128.0517150
 151.6455256 125.1672270 128.0700774 152.8305857 125.2735068 129.4186063
 157.6899904 125.3334292 125.4409391 159.1741579 124.5773141 126.0857570
 157.8633253 125.5697113 127.9473684 157.8597374 123.8194533 128.1265830
 155.7926078 125.5715210 127.4890000 157.0680000 122.2150000 127.6610000
 153.5870000 127.8350000 136.4580000 154.0250000 127.5130000 135.1400000
 155.5416870 127.6460422 135.0720128 156.1478325 126.7454892 135.9962661
 152.6170000 127.7180000 136.4380000 153.5451500 128.1960745 134.4329185
 153.7164998 126.4848257 134.9269032 155.8577786 128.6589699 135.3430657
 155.9098866 127.4130970 134.0694997 155.7132520 126.9303657 136.8518065
 155.5190000 125.0510000 141.8810000 153.4650000 126.1980000 140.7650000
 153.5759214 127.4311885 141.6599740 152.7008707 125.1128749 141.5097234
 158.0808790 124.5205784 139.2287728 157.5142276 124.6400000 140.6540000
 156.0970000 124.6400000 140.6540000 156.2180000 123.6680000 140.6850000
 155.6931057 124.0911082 141.3812381 155.2993487 124.9004789 142.9397628
 154.6104599 127.7963217 141.6167677 153.3183039 127.1425211 142.6840313
 152.9184407 128.2141457 141.2842770 153.1079448 124.1390218 141.2167150
 151.6455256 125.1672270 141.2350774 152.8305857 125.2735068 142.5836063
 157.6899904 125.3334292 138.6059391 159.1741579 124.5773141 139.2507570
 157.8633253 125.5697113 141.1123684 157.8597374 123.8194533 141.2915830
 155.7926078 125.5715210 140.6540000 157.0680000 122.2150000 140.8260000
 153.5870000 127.8350000 149.6230000 154.0250000 127.5130000 148.3050000
 155.5416870 127.6460422 148.2370128 156.1478325 126.7454892 149.1612661
 152.6170000 127.7180000 149.6030000 153.5451500 128.1960745 147.5979185
 153.7164998 126.4848257 148.0919032 155.8577786 128.6589699 148.5080657
 155.9098866 127.4130970 147.2344997 155.7132520 126.9303657 150.0168065
 155.5190000 125.0510000 155.0460000 153.4650000 126.1980000 153.9300000
 153.5759214 127.4311885 154.8249740 152.7008707 125.1128749 154.6747234
 158.0808790 124.5205784 152.3937728 157.5142276 124.6400000 153.8190000
 156.0970000 124.6400000 153.8190000 156.2180000 123.6680000 153.8500000
 155.6931057 124.0911082 154.5462381 155.2993487 124.9004789 156.1047628
 154.6104599 127.7963217 154.7817677 153.3183039 127.1425211 155.8490313
 152.9184407 128.2141457 154.4492770 153.1079448 124.1390218 154.3817150
 151.6455256 125.1672270 154.4000774 152.8305857 125.2735068 155.7486063
 157.6899904 125.3334292 151.7709391 159.1741579 124.5773141 152.4157570
 157.8633253 125.5697113 154.2773684 157.8597374 123.8194533 154.4565830
 155.7926078 125.5715210 153.8190000 157.0680000 122.2150000 153.9910000
 153.5870000 127.8350000 162.7880000 154.0250000 127.5130000 161.4700000
 155.5416870 127.6460422 161.4020128 156.1478325 126.7454892 162.3262661
 152.6170000 127.7180000 162.7680000 153.5451500 128.1960745 160.7629185
 153.7164998 126.4848257 161.2569032 155.8577786 128.6589699 161.6730657
 155.9098866 127.4130970 160.3994997 155.7132520 126.9303657 163.1818065
 155.5190000 125.0510000 168.2110000 153.4650000 126.1980000 167.0950000
 153.5759214 127.4311885 167.9899740 152.7008707 125.1128749 167.8397234
 158.0808790 124.5205784 165.5587728 157.5142276 124.6400000 166.9840000
 156.0970000 124.6400000 166.9840000 156.2180000 123.6680000 167.0150000
 155.6931057 124.0911082 167.7112381 155.2993487 124.9004789 169.2697628
 154.6104599 127.7963217 167.9467677 153.3183039 127.1425211 169.0140313
 152.9184407 128.2141457 167.6142770 153.1079448 124.1390218 167.5467150
 151.6455256 125.1672270 167.5650774 152.8305857 125.2735068 168.9136063
 157.6899904 125.3334292 164.9359391 159.1741579 124.5773141 165.5807570
 157.8633253 125.5697113 167.4423684 157.8597374 123.8194533 167.6215830
 155.7926078 125.5715210 166.9840000 157.0680000 122.2150000 167.1560000
 153.5870000 127.8350000 175.9530000 154.0250000 127.5130000 174.6350000
 155.5416870 127.6460422 174.5670128 156.1478325 126.7454892 175.4912661
 152.6170000 127.7180000 175.9330000 153.5451500 128.1960745 173.9279185
 153.7164998 126.4848257 174.4219032 155.8577786 128.6589699 174.8380657
 155.9098866 127.4130970 173.5644997 155.7132520 126.9303657 176.3468065
 155.5190000 125.0510000 181.3770000 153.4650000 126.1980000 180.2610000
 153.5759214 127.4311885 181.1559740 152.7008707 125.1128749 181.0057234
 158.0808790 124.5205784 178.7247728 157.5142276 124.6400000 180.1500000
 156.0970000 124.6400000 180.1500000 156.2180000 123.6680000 180.1810000
 155.6931057 124.0911082 180.8772381 155.2993487 124.9004789 182.4357628
 154.6104599 127.7963217 181.1127677 153.3183039 127.1425211 182.1800313
 152.9184407 128.2141457 180.7802770 153.1079448 124.1390218 180.7127150
 151.6455256 125.1672270 180.7310774 152.8305857 125.2735068 182.0796063
 157.6899904 125.3334292 178.1019391 159.1741579 124.5773141 178.7467570
 157.8633253 125.5697113 180.6083684 157.8597374 123.8194533 180.7875830
 155.7926078 125.5715210 180.1500000 157.0680000 122.2150000 180.3220000
 153.5870000 127.8350000 189.1190000 154.0250000 127.5130000 187.8010000
 155.5416870 127.6460422 187.7330128 156.1478325 126.7454892 188.6572661
 152.6170000 127.7180000 189.0990000 153.5451500 128.1960745 187.0939185
 153.7164998 126.4848257 187.5879032 155.8577786 128.6589699 188.0040657
 155.9098866 127.4130970 186.7304997 155.7132520 126.9303657 189.5128065
 155.5190000 125.0510000 194.5420000 153.4650000 126.1980000 193.4260000
 153.5759214 127.4311885 194.3209740 152.7008707 125.1128749 194.1707234
 158.0808790 124.5205784 191.8897728 157.5142276 124.6400000 193.3150000
 156.0970000 124.6400000 193.3150000 156.2180000 123.6680000 193.3460000
 155.6931057 124.0911082 194.0422381 155.2993487 124.9004789 195.6007628
 154.6104599 127.7963217 194.2777677 153.3183039 127.1425211 195.3450313
 152.9184407 128.2141457 193.9452770 153.1079448 124.1390218 193.8777150
 151.6455256 125.1672270 193.8960774 152.8305857 125.2735068 195.2446063
 157.6899904 125.3334292 191.2669391 159.1741579 124.5773141 191.9117570
 157.8633253 125.5697113 193.7733684 157.8597374 123.8194533 193.9525830
 155.7926078 125.5715210 193.3150000 157.0680000 122.2150000 193.4870000
 153.5870000 127.8350000 202.2840000 154.0250000 127.5130000 200.9660000
 155.5416870 127.6460422 200.8980128 156.1478325 126.7454892 201.8222661
 152.6170000 127.7180000 202.2640000 153.5451500 128.1960745 200.2589185
 153.7164998 126.4848257 200.7529032 155.8577786 128.6589699 201.1690657
 155.9098866 127.4130970 199.8954997 155.7132520 126.9303657 202.6778065
 155.5190000 132.3670000  76.0550000 153.4650000 133.5140000  74.9390000
 153.5759214 134.7471885  75.8339740 152.7008707 132.4288749  75.6837234
 158.0808790 131.8365784  73.4027728 157.5142276 131.9560000  74.8280000
 156.0970000 131.9560000  74.8280000 156.2180000 130.9840000  74.8590000
 155.6931057 131.4071082  75.5552381 155.2993487 132.2164789  77.1137628
 154.6104599 135.1123217  75.7907677 153.3183039 134.4585211  76.8580313
 152.9184407 135.5301457  75.4582770 153.1079448 131.4550218  75.3907150
 151.6455256 132.4832270  75.4090774 152.8305857 132.5895068  76.7576063
 157.6899904 132.6494292  72.7799391 159.1741579 131.8933141  73.4247570
 157.8633253 132.8857113  75.2863684 157.8597374 131.1354533  75.4655830
 155.7926078 132.8875210  74.8280000 157.0680000 129.5310000  75.0000000
 153.5870000 135.1510000  83.7970000 154.0250000 134.8290000  82.4790000
 155.5416870 134.9620422  82.4110128 156.1478325 134.0614892  83.3352661
 152.6170000 135.0340000  83.7770000 153.5451500 135.5120745  81.7719185
 153.7164998 133.8008257  82.2659032 155.8577786 135.9749699  82.6820657
 155.9098866 134.7290970  81.4084997 155.7132520 134.2463657  84.1908065
 155.5190000 132.3670000  89.2200000 153.4650000 133.5140000  88.1040000
 153.5759214 134.7471885  88.9989740 152.7008707 132.4288749  88.8487234
 158.0808790 131.8365784  86.5677728 157.5142276 131.9560000  87.9930000
 156.0970000 131.9560000  87.9930000 156.2180000 130.9840000  88.0240000
 155.6931057 131.4071082  88.7202381 155.2993487 132.2164789  90.2787628
 154.6104599 135.1123217  88.9557677 153.3183039 134.4585211  90.0230313
 152.9184407 135.5301457  88.6232770 153.1079448 131.4550218  88.5557150
 151.6455256 132.4832270  88.5740774 152.8305857 132.5895068  89.9226063
 157.6899904 132.6494292  85.9449391 159.1741579 131.8933141  86.5897570
 157.8633253 132.8857113  88.4513684 157.8597374 131.1354533  88.6305830
 155.7926078 132.8875210  87.9930000 157.0680000 129.5310000  88.1650000
 153.5870000 135.1510000  96.9620000 154.0250000 134.8290000  95.6440000
 155.5416870 134.9620422  95.5760128 156.1478325 134.0614892  96.5002661
 152.6170000 135.0340000  96.9420000 153.5451500 135.5120745  94.9369185
 153.7164998 133.8008257  95.4309032 155.8577786 135.9749699  95.8470657
 155.9098866 134.7290970  94.5734997 155.7132520 134.2463657  97.3558065
 155.5190000 132.3670000 102.3850000 153.4650000 133.5140000 101.2690000
 153.5759214 134.7471885 102.1639740 152.7008707 132.4288749 102.0137234
 158.0808790 131.8365784  99.7327728 157.5142276 131.9560000 101.1580000
 156.0970000 131.9560000 101.1580000 156.2180000 130.9840000 101.1890000
 155.6931057 131.4071082 101.8852381 155.2993487 132.2164789 103.4437628
 154.6104599 135.1123217 102.1207677 153.3183039 134.4585211 103.1880313
 152.9184407 135.5301457 101.7882770 153.1079448 131.4550218 101.7207150
 151.6455256 132.4832270 101.7390774 152.8305857 132.5895068 103.0876063
 157.6899904 132.6494292  99.1099391 159.1741579 131.8933141  99.7547570
 157.8633253 132.8857113 101.6163684 157.8597374 131.1354533 101.7955830
 155.7926078 132.8875210 101.1580000 157.0680000 129.5310000 101.3300000
 153.5870000 135.1510000 110.1270000 154.0250000 134.8290000 108.8090000
 155.5416870 134.9620422 108.7410128 156.1478325 134.0614892 109.6652661
 152.6170000 135.0340000 110.1070000 153.5451500 135.5120745 108.1019185
 153.7164998 133.8008257 108.5959032 155.8577786 135.9749699 109.0120657
 155.9098866 134.7290970 107.7384997 155.7132520 134.2463657 110.5208065
 155.5190000 132.3670000 115.5510000 153.4650000 133.5140000 114.4350000
 153.5759214 134.7471885 115.3299740 152.7008707 132.4288749 115.1797234
 158.0808790 131.8365784 112.8987728 157.5142276 131.9560000 114.3240000
 156.0970000 131.9560000 114.3240000 156.2180000 130.9840000 114.3550000
 155.6931057 131.4071082 115.0512381 155.2993487 132.2164789 116.6097628
 154.6104599 135.1123217 115.2867677 153.3183039 134.4585211 116.3540313
 152.9184407 135.5301457 114.9542770 153.1079448 131.4550218 114.8867150
 151.6455256 132.4832270 114.9050774 152.8305857 132.5895068 116.2536063
 157.6899904 132.6494292 112.2759391 159.1741579 131.8933141 112.9207570
 157.8633253 132.8857113 114.7823684 157.8597374 131.1354533 114.9615830
 155.7926078 132.8875210 114.3240000 157.0680000 129.5310000 114.4960000
 153.5870000 135.1510000 123.2930000 154.0250000 134.8290000 121.9750000
 155.5416870 134.9620422 121.9070128 156.1478325 134.0614892 122.8312661
 152.6170000 135.0340000 123.2730000 153.5451500 135.5120745 121.2679185
 153.7164998 133.8008257 121.7619032 155.8577786 135.9749699 122.1780657
 155.9098866 134.7290970 120.9044997 155.7132520 134.2463657 123.6868065
 155.5190000 132.3670000 128.7160000 153.4650000 133.5140000 127.6000000
 153.5759214 134.7471885 128.4949740 152.7008707 132.4288749 128.3447234
 158.0808790 131.8365784 126.0637728 157.5142276 131.9560000 127.4890000
 156.0970000 131.9560000 127.4890000 156.2180000 130.9840000 127.5200000
 155.6931057 131.4071082 128.2162381 155.2993487 132.2164789 129.7747628
 154.6104599 135.1123217 128.4517677 153.3183039 134.4585211 129.5190313
 152.9184407 135.5301457 128.1192770 153.1079448 131.4550218 128.0517150
 151.6455256 132.4832270 128.0700774 152.8305857 132.5895068 129.4186063
 157.6899904 132.6494292 125.4409391 159.1741579 131.8933141 126.0857570
 157.8633253 132.8857113 127.9473684 157.8597374 131.1354533 128.1265830
 155.7926078 132.8875210 127.4890000 157.0680000 129.5310000 127.6610000
 153.5870000 135.1510000 136.4580000 154.0250000 134.8290000 135.1400000
 155.5416870 134.9620422 135.0720128 156.1478325 134.0614892 135.9962661
 152.6170000 135.0340000 136.4380000 153.5451500 135.5120745 134.4329185
 153.7164998 133.8008257 134.9269032 155.8577786 135.9749699 135.3430657
 155.9098866 134.7290970 134.0694997 155.7132520 134.2463657 136.8518065
 155.5190000 132.3670000 141.8810000 153.4650000 133.5140000 140.7650000
 153.5759214 134.7471885 141.6599740 152.7008707 132.4288749 141.5097234
 158.0808790 131.8365784 139.2287728 157.5142276 131.9560000 140.6540000
 156.0970000 131.9560000 140.6540000 156.2180000 130.9840000 140.6850000
 155.6931057 131.4071082 141.3812381 155.2993487 132.2164789 142.9397628
 154.6104599 135.1123217 141.6167677 153.3183039 134.4585211 142.6840313
 152.9184407 135.5301457 141.2842770 153.1079448 131.4550218 141.2167150
 151.6455256 132.4832270 141.2350774 152.8305857 132.5895068 142.5836063
 157.6899904 132.6494292 138.6059391 159.1741579 131.8933141 139.2507570
 157.8633253 132.8857113 141.1123684 157.8597374 131.1354533 141.2915830
 155.7926078 132.8875210 140.6540000 157.0680000 129.5310000 140.8260000
 153.5870000 135.1510000 149.6230000 154.0250000 134.8290000 148.3050000
 155.5416870 134.9620422 148.2370128 156.1478325 134.0614892 149.1612661
 152.6170000 135.0340000 149.6030000 153.5451500 135.5120745 147.5979185
 153.7164998 133.8008257 148.0919032 155.8577786 135.9749699 148.5080657
 155.9098866 134.7290970 147.2344997 155.7132520 134.2463657 150.0168065
 155.5190000 132.3670000 155.0460000 153.4650000 133.5140000 153.9300000
 153.5759214 134.7471885 154.8249740 152.7008707 132.4288749 154.6747234
 158.0808790 131.8365784 152.3937728 157.5142276 131.9560000 153.8190000
 156.0970000 131.9560000 153.8190000 156.2180000 130.9840000 153.8500000
 155.6931057 131.4071082 154.5462381 155.2993487 132.2164789 156.1047628
 154.6104599 135.1123217 154.7817677 153.3183039 134.4585211 155.8490313
 152.9184407 135.5301457 154.4492770 153.1079448 131.4550218 154.3817150
 151.6455256 132.4832270 154.4000774 152.8305857 132.5895068 155.7486063
 157.6899904 132.6494292 151.7709391 159.1741579 131.8933141 152.4157570
 157.8633253 132.8857113 154.2773684 157.8597374 131.1354533 154.4565830
 155.7926078 132.8875210 153.8190000 157.0680000 129.5310000 153.9910000
 153.5870000 135.1510000 162.7880000 154.0250000 134.8290000 161.4700000
 155.5416870 134.9620422 161.4020128 156.1478325 134.0614892 162.3262661
 152.6170000 135.0340000 162.7680000 153.5451500 135.5120745 160.7629185
 153.7164998 133.8008257 161.2569032 155.8577786 135.9749699 161.6730657
 155.9098866 134.7290970 160.3994997 155.7132520 134.2463657 163.1818065
 155.5190000 132.3670000 168.2110000 153.4650000 133.5140000 167.0950000
 153.5759214 134.7471885 167.9899740 152.7008707 132.4288749 167.8397234
 158.0808790 131.8365784 165.5587728 157.5142276 131.9560000 166.9840000
 156.0970000 131.9560000 166.9840000 156.2180000 130.9840000 167.0150000
 155.6931057 131.4071082 167.7112381 155.2993487 132.2164789 169.2697628
 154.6104599 135.1123217 167.9467677 153.3183039 134.4585211 169.0140313
 152.9184407 135.5301457 167.6142770 153.1079448 131.4550218 167.5467150
 151.6455256 132.4832270 167.5650774 152.8305857 132.5895068 168.9136063
 157.6899904 132.6494292 164.9359391 159.1741579 131.8933141 165.5807570
 157.8633253 132.8857113 167.4423684 157.8597374 131.1354533 167.6215830
 155.7926078 132.8875210 166.9840000 157.0680000 129.5310000 167.1560000
 153.5870000 135.1510000 175.9530000 154.0250000 134.8290000 174.6350000
 155.5416870 134.9620422 174.5670128 156.1478325 134.0614892 175.4912661
 152.6170000 135.0340000 175.9330000 153.5451500 135.5120745 173.9279185
 153.7164998 133.8008257 174.4219032 155.8577786 135.9749699 174.8380657
 155.9098866 134.7290970 173.5644997 155.7132520 134.2463657 176.3468065
 155.5190000 132.3670000 181.3770000 153.4650000 133.5140000 180.2610000
 153.5759214 134.7471885 181.1559740 152.7008707 132.4288749 181.0057234
 158.0808790 131.8365784 178.7247728 157.5142276 131.9560000 180.1500000
 156.0970000 131.9560000 180.1500000 156.2180000 130.9840000 180.1810000
 155.6931057 131.4071082 180.8772381 155.2993487 132.2164789 182.4357628
 154.6104599 135.1123217 181.1127677 153.3183039 134.4585211 182.1800313
 152.9184407 135.5301457 180.7802770 153.1079448 131.4550218 180.7127150
 151.6455256 132.4832270 180.7310774 152.8305857 132.5895068 182.0796063
 157.6899904 132.6494292 178.1019391 159.1741579 131.8933141 178.7467570
 157.8633253 132.8857113 180.6083684 157.8597374 131.1354533 180.7875830
 155.7926078 132.8875210 180.1500000 157.0680000 129.5310000 180.3220000
 153.5870000 135.1510000 189.1190000 154.0250000 134.8290000 187.8010000
 155.5416870 134.9620422 187.7330128 156.1478325 134.0614892 188.6572661
 152.6170000 135.0340000 189.0990000 153.5451500 135.5120745 187.0939185
 153.7164998 133.8008257 187.5879032 155.8577786 135.9749699 188.0040657
 155.9098866 134.7290970 186.7304997 155.7132520 134.2463657 189.5128065
 155.5190000 132.3670000 194.5420000 153.4650000 133.5140000 193.4260000
 153.5759214 134.7471885 194.3209740 152.7008707 132.4288749 194.1707234
 158.0808790 131.8365784 191.8897728 157.5142276 131.9560000 193.3150000
 156.0970000 131.9560000 193.3150000 156.2180000 130.9840000 193.3460000
 155.6931057 131.4071082 194.0422381 155.2993487 132.2164789 195.6007628
 154.6104599 135.1123217 194.2777677 153.3183039 134.4585211 195.3450313
 152.9184407 135.5301457 193.9452770 153.1079448 131.4550218 193.8777150
 151.6455256 132.4832270 193.8960774 152.8305857 132.5895068 195.2446063
 157.6899904 132.6494292 191.2669391 159.1741579 131.8933141 191.9117570
 157.8633253 132.8857113 193.7733684 157.8597374 131.1354533 193.9525830
 155.7926078 132.8875210 193.3150000 157.0680000 129.5310000 193.4870000
 153.5870000 135.1510000 202.2840000 154.0250000 134.8290000 200.9660000
 155.5416870 134.9620422 200.8980128 156.1478325 134.0614892 201.8222661
 152.6170000 135.0340000 202.2640000 153.5451500 135.5120745 200.2589185
 153.7164998 133.8008257 200.7529032 155.8577786 135.9749699 201.1690657
 155.9098866 134.7290970 199.8954997 155.7132520 134.2463657 202.6778065
 155.5190000 139.6840000  76.0550000 153.4650000 140.8310000  74.9390000
 153.5759214 142.0641885  75.8339740 152.7008707 139.7458749  75.6837234
 158.0808790 139.1535784  73.4027728 157.5142276 139.2730000  74.8280000
 156.0970000 139.2730000  74.8280000 156.2180000 138.3010000  74.8590000
 155.6931057 138.7241082  75.5552381 155.2993487 139.5334789  77.1137628
 154.6104599 142.4293217  75.7907677 153.3183039 141.7755211  76.8580313
 152.9184407 142.8471457  75.4582770 153.1079448 138.7720218  75.3907150
 151.6455256 139.8002270  75.4090774 152.8305857 139.9065068  76.7576063
 157.6899904 139.9664292  72.7799391 159.1741579 139.2103141  73.4247570
 157.8633253 140.2027113  75.2863684 157.8597374 138.4524533  75.4655830
 155.7926078 140.2045210  74.8280000 157.0680000 136.8480000  75.0000000
 153.5870000 142.4680000  83.7970000 154.0250000 142.1460000  82.4790000
 155.5416870 142.2790422  82.4110128 156.1478325 141.3784892  83.3352661
 152.6170000 142.3510000  83.7770000 153.5451500 142.8290745  81.7719185
 153.7164998 141.1178257  82.2659032 155.8577786 143.2919699  82.6820657
 155.9098866 142.0460970  81.4084997 155.7132520 141.5633657  84.1908065
 155.5190000 139.6840000  89.2200000 153.4650000 140.8310000  88.1040000
 153.5759214 142.0641885  88.9989740 152.7008707 139.7458749  88.8487234
 158.0808790 139.1535784  86.5677728 157.5142276 139.2730000  87.9930000
 156.0970000 139.2730000  87.9930000 156.2180000 138.3010000  88.0240000
 155.6931057 138.7241082  88.7202381 155.2993487 139.5334789  90.2787628
 154.6104599 142.4293217  88.9557677 153.3183039 141.7755211  90.0230313
 152.9184407 142.8471457  88.6232770 153.1079448 138.7720218  88.5557150
 151.6455256 139.8002270  88.5740774 152.8305857 139.9065068  89.9226063
 157.6899904 139.9664292  85.9449391 159.1741579 139.2103141  86.5897570
 157.8633253 140.2027113  88.4513684 157.8597374 138.4524533  88.6305830
 155.7926078 140.2045210  87.9930000 157.0680000 136.8480000  88.1650000
 153.5870000 142.4680000  96.9620000 154.0250000 142.1460000  95.6440000
 155.5416870 142.2790422  95.5760128 156.1478325 141.3784892  96.5002661
 152.6170000 142.3510000  96.9420000 153.5451500 142.8290745  94.9369185
 153.7164998 141.1178257  95.4309032 155.8577786 143.2919699  95.8470657
 155.9098866 142.0460970  94.5734997 155.7132520 141.5633657  97.3558065
 155.5190000 139.6840000 102.3850000 153.4650000 140.8310000 101.2690000
 153.5759214 142.0641885 102.1639740 152.7008707 139.7458749 102.0137234
 158.0808790 139.1535784  99.7327728 157.5142276 139.2730000 101.1580000
 156.0970000 139.2730000 101.1580000 156.2180000 138.3010000 101.1890000
 155.6931057 138.7241082 101.8852381 155.2993487 139.5334789 103.4437628
 154.6104599 142.4293217 102.1207677 153.3183039 141.7755211 103.1880313
 152.9184407 142.8471457 101.7882770 153.1079448 138.7720218 101.7207150
 151.6455256 139.8002270 101.7390774 152.8305857 139.9065068 103.0876063
 157.6899904 139.9664292  99.1099391 159.1741579 139.2103141  99.7547570
 157.8633253 140.2027113 101.6163684 157.8597374 138.4524533 101.7955830
 155.7926078 140.2045210 101.1580000 157.0680000 136.8480000 101.3300000
 153.5870000 142.4680000 110.1270000 154.0250000 142.1460000 108.8090000
 155.5416870 142.2790422 108.7410128 156.1478325 141.3784892 109.6652661
 152.6170000 142.3510000 110.1070000 153.5451500 142.8290745 108.1019185
 153.7164998 141.1178257 108.5959032 155.8577786 143.2919699 109.0120657
 155.9098866 142.0460970 107.7384997 155.7132520 141.5633657 110.5208065
 155.5190000 139.6840000 115.5510000 153.4650000 140.8310000 114.4350000
 153.5759214 142.0641885 115.3299740 152.7008707 139.7458749 115.1797234
 158.0808790 139.1535784 112.8987728 157.5142276 139.2730000 114.3240000
 156.0970000 139.2730000 114.3240000 156.2180000 138.3010000 114.3550000
 155.6931057 138.7241082 115.0512381 155.2993487 139.5334789 116.6097628
 154.6104599 142.4293217 115.2867677 153.3183039 141.7755211 116.3540313
 152.9184407 142.8471457 114.9542770 153.1079448 138.7720218 114.8867150
 151.6455256 139.8002270 114.9050774 152.8305857 139.9065068 116.2536063
 157.6899904 139.9664292 112.2759391 159.1741579 139.2103141 112.9207570
 157.8633253 140.2027113 114.7823684 157.8597374 138.4524533 114.9615830
 155.7926078 140.2045210 114.3240000 157.0680000 136.8480000 114.4960000
 153.5870000 142.4680000 123.2930000 154.0250000 142.1460000 121.9750000
 155.5416870 142.2790422 121.9070128 156.1478325 141.3784892 122.8312661
 152.6170000 142.3510000 123.2730000 153.5451500 142.8290745 121.2679185
 153.7164998 141.1178257 121.7619032 155.8577786 143.2919699 122.1780657
 155.9098866 142.0460970 120.9044997 155.7132520 141.5633657 123.6868065
 155.5190000 139.6840000 128.7160000 153.4650000 140.8310000 127.6000000
 153.5759214 142.0641885 128.4949740 152.7008707 139.7458749 128.3447234
 158.0808790 139.1535784 126.0637728 157.5142276 139.2730000 127.4890000
 156.0970000 139.2730000 127.4890000 156.2180000 138.3010000 127.5200000
 155.6931057 138.7241082 128.2162381 155.2993487 139.5334789 129.7747628
 154.6104599 142.4293217 128.4517677 153.3183039 141.7755211 129.5190313
 152.9184407 142.8471457 128.1192770 153.1079448 138.7720218 128.0517150
 151.6455256 139.8002270 128.0700774 152.8305857 139.9065068 129.4186063
 157.6899904 139.9664292 125.4409391 159.1741579 139.2103141 126.0857570
 157.8633253 140.2027113 127.9473684 157.8597374 138.4524533 128.1265830
 155.7926078 140.2045210 127.4890000 157.0680000 136.8480000 127.6610000
 153.5870000 142.4680000 136.4580000 154.0250000 142.1460000 135.1400000
 155.5416870 142.2790422 135.0720128 156.1478325 141.3784892 135.9962661
 152.6170000 142.3510000 136.4380000 153.5451500 142.8290745 134.4329185
 153.7164998 141.1178257 134.9269032 155.8577786 143.2919699 135.3430657
 155.9098866 142.0460970 134.0694997 155.7132520 141.5633657 136.8518065
 155.5190000 139.6840000 141.8810000 153.4650000 140.8310000 140.7650000
 153.5759214 142.0641885 141.6599740 152.7008707 139.7458749 141.5097234
 158.0808790 139.1535784 139.2287728 157.5142276 139.2730000 140.6540000
 156.0970000 139.2730000 140.6540000 156.2180000 138.3010000 140.6850000
 155.6931057 138.7241082 141.3812381 155.2993487 139.5334789 142.9397628
 154.6104599 142.4293217 141.6167677 153.3183039 141.7755211 142.6840313
 152.9184407 142.8471457 141.2842770 153.1079448 138.7720218 141.2167150
 151.6455256 139.8002270 141.2350774 152.8305857 139.9065068 142.5836063
 157.6899904 139.9664292 138.6059391 159.1741579 139.2103141 139.2507570
 157.8633253 140.2027113 141.1123684 157.8597374 138.4524533 141.2915830
 155.7926078 140.2045210 140.6540000 157.0680000 136.8480000 140.8260000
 153.5870000 142.4680000 149.6230000 154.0250000 142.1460000 148.3050000
 155.5416870 142.2790422 148.2370128 156.1478325 141.3784892 149.1612661
 152.6170000 142.3510000 149.6030000 153.5451500 142.8290745 147.5979185
 153.7164998 141.1178257 148.0919032 155.8577786 143.2919699 148.5080657
 155.9098866 142.0460970 147.2344997 155.7132520 141.5633657 150.0168065
 155.5190000 139.6840000 155.0460000 153.4650000 140.8310000 153.9300000
 153.5759214 142.0641885 154.8249740 152.7008707 139.7458749 154.6747234
 158.0808790 139.1535784 152.3937728 157.5142276 139.2730000 153.8190000
 156.0970000 139.2730000 153.8190000 156.2180000 138.3010000 153.8500000
 155.6931057 138.7241082 154.5462381 155.2993487 139.5334789 156.1047628
 154.6104599 142.4293217 154.7817677 153.3183039 141.7755211 155.8490313
 152.9184407 142.8471457 154.4492770 153.1079448 138.7720218 154.3817150
 151.6455256 139.8002270 154.4000774 152.8305857 139.9065068 155.7486063
 157.6899904 139.9664292 151.7709391 159.1741579 139.2103141 152.4157570
 157.8633253 140.2027113 154.2773684 157.8597374 138.4524533 154.4565830
 155.7926078 140.2045210 153.8190000 157.0680000 136.8480000 153.9910000
 153.5870000 142.4680000 162.7880000 154.0250000 142.1460000 161.4700000
 155.5416870 142.2790422 161.4020128 156.1478325 141.3784892 162.3262661
 152.6170000 142.3510000 162.7680000 153.5451500 142.8290745 160.7629185
 153.7164998 141.1178257 161.2569032 155.8577786 143.2919699 161.6730657
 155.9098866 142.0460970 160.3994997 155.7132520 141.5633657 163.1818065
 155.5190000 139.6840000 168.2110000 153.4650000 140.8310000 167.0950000
 153.5759214 142.0641885 167.9899740 152.7008707 139.7458749 167.8397234
 158.0808790 139.1535784 165.5587728 157.5142276 139.2730000 166.9840000
 156.0970000 139.2730000 166.9840000 156.2180000 138.3010000 167.0150000
 155.6931057 138.7241082 167.7112381 155.2993487 139.5334789 169.2697628
 154.6104599 142.4293217 167.9467677 153.3183039 141.7755211 169.0140313
 152.9184407 142.8471457 167.6142770 153.1079448 138.7720218 167.5467150
 151.6455256 139.8002270 167.5650774 152.8305857 139.9065068 168.9136063
 157.6899904 139.9664292 164.9359391 159.1741579 139.2103141 165.5807570
 157.8633253 140.2027113 167.4423684 157.8597374 138.4524533 167.6215830
 155.7926078 140.2045210 166.9840000 157.0680000 136.8480000 167.1560000
 153.5870000 142.4680000 175.9530000 154.0250000 142.1460000 174.6350000
 155.5416870 142.2790422 174.5670128 156.1478325 141.3784892 175.4912661
 152.6170000 142.3510000 175.9330000 153.5451500 142.8290745 173.9279185
 153.7164998 141.1178257 174.4219032 155.8577786 143.2919699 174.8380657
 155.9098866 142.0460970 173.5644997 155.7132520 141.5633657 176.3468065
 155.5190000 139.6840000 181.3770000 153.4650000 140.8310000 180.2610000
 153.5759214 142.0641885 181.1559740 152.7008707 139.7458749 181.0057234
 158.0808790 139.1535784 178.7247728 157.5142276 139.2730000 180.1500000
 156.0970000 139.2730000 180.1500000 156.2180000 138.3010000 180.1810000
 155.6931057 138.7241082 180.8772381 155.2993487 139.5334789 182.4357628
 154.6104599 142.4293217 181.1127677 153.3183039 141.7755211 182.1800313
 152.9184407 142.8471457 180.7802770 153.1079448 138.7720218 180.7127150
 151.6455256 139.8002270 180.7310774 152.8305857 139.9065068 182.0796063
 157.6899904 139.9664292 178.1019391 159.1741579 139.2103141 178.7467570
 157.8633253 140.2027113 180.6083684 157.8597374 138.4524533 180.7875830
 155.7926078 140.2045210 180.1500000 157.0680000 136.8480000 180.3220000
 153.5870000 142.4680000 189.1190000 154.0250000 142.1460000 187.8010000
 155.5416870 142.2790422 187.7330128 156.1478325 141.3784892 188.6572661
 152.6170000 142.3510000 189.0990000 153.5451500 142.8290745 187.0939185
 153.7164998 141.1178257 187.5879032 155.8577786 143.2919699 188.0040657
 155.9098866 142.0460970 186.7304997 155.7132520 141.5633657 189.5128065
 155.5190000 139.6840000 194.5420000 153.4650000 140.8310000 193.4260000
 153.5759214 142.0641885 194.3209740 152.7008707 139.7458749 194.1707234
 158.0808790 139.1535784 191.8897728 157.5142276 139.2730000 193.3150000
 156.0970000 139.2730000 193.3150000 156.2180000 138.3010000 193.3460000
 155.6931057 138.7241082 194.0422381 155.2993487 139.5334789 195.6007628
 154.6104599 142.4293217 194.2777677 153.3183039 141.7755211 195.3450313
 152.9184407 142.8471457 193.9452770 153.1079448 138.7720218 193.8777150
 151.6455256 139.8002270 193.8960774 152.8305857 139.9065068 195.2446063
 157.6899904 139.9664292 191.2669391 159.1741579 139.2103141 191.9117570
 157.8633253 140.2027113 193.7733684 157.8597374 138.4524533 193.9525830
 155.7926078 140.2045210 193.3150000 157.0680000 136.8480000 193.4870000
 153.5870000 142.4680000 202.2840000 154.0250000 142.1460000 200.9660000
 155.5416870 142.2790422 200.8980128 156.1478325 141.3784892 201.8222661
 152.6170000 142.3510000 202.2640000 153.5451500 142.8290745 200.2589185
 153.7164998 141.1178257 200.7529032 155.8577786 143.2919699 201.1690657
 155.9098866 142.0460970 199.8954997 155.7132520 141.5633657 202.6778065
 168.1970000  73.8360000  76.0550000 166.1430000  74.9830000  74.9390000
 166.2539214  76.2161885  75.8339740 165.3788707  73.8978749  75.6837234
 170.7588790  73.3055784  73.4027728 170.1922276  73.4250000  74.8280000
 168.7750000  73.4250000  74.8280000 168.8960000  72.4530000  74.8590000
 168.3711057  72.8761082  75.5552381 167.9773487  73.6854789  77.1137628
 167.2884599  76.5813217  75.7907677 165.9963039  75.9275211  76.8580313
 165.5964407  76.9991457  75.4582770 165.7859448  72.9240218  75.3907150
 164.3235256  73.9522270  75.4090774 165.5085857  74.0585068  76.7576063
 170.3679904  74.1184292  72.7799391 171.8521579  73.3623141  73.4247570
 170.5413253  74.3547113  75.2863684 170.5377374  72.6044533  75.4655830
 168.4706078  74.3565210  74.8280000 169.7460000  71.0000000  75.0000000
 166.2650000  76.6200000  83.7970000 166.7030000  76.2980000  82.4790000
 168.2196870  76.4310422  82.4110128 168.8258325  75.5304892  83.3352661
 165.2950000  76.5030000  83.7770000 166.2231500  76.9810745  81.7719185
 166.3944998  75.2698257  82.2659032 168.5357786  77.4439699  82.6820657
 168.5878866  76.1980970  81.4084997 168.3912520  75.7153657  84.1908065
 168.1970000  73.8360000  89.2200000 166.1430000  74.9830000  88.1040000
 166.2539214  76.2161885  88.9989740 165.3788707  73.8978749  88.8487234
 170.7588790  73.3055784  86.5677728 170.1922276  73.4250000  87.9930000
 168.7750000  73.4250000  87.9930000 168.8960000  72.4530000  88.0240000
 168.3711057  72.8761082  88.7202381 167.9773487  73.6854789  90.2787628
 167.2884599  76.5813217  88.9557677 165.9963039  75.9275211  90.0230313
 165.5964407  76.9991457  88.6232770 165.7859448  72.9240218  88.5557150
 164.3235256  73.9522270  88.5740774 165.5085857  74.0585068  89.9226063
 170.3679904  74.1184292  85.9449391 171.8521579  73.3623141  86.5897570
 170.5413253  74.3547113  88.4513684 170.5377374  72.6044533  88.6305830
 168.4706078  74.3565210  87.9930000 169.7460000  71.0000000  88.1650000
 166.2650000  76.6200000  96.9620000 166.7030000  76.2980000  95.6440000
 168.2196870  76.4310422  95.5760128 168.8258325  75.5304892  96.5002661
 165.2950000  76.5030000  96.9420000 166.2231500  76.9810745  94.9369185
 166.3944998  75.2698257  95.4309032 168.5357786  77.4439699  95.8470657
 168.5878866  76.1980970  94.5734997 168.3912520  75.7153657  97.3558065
 168.1970000  73.8360000 102.3850000 166.1430000  74.9830000 101.2690000
 166.2539214  76.2161885 102.1639740 165.3788707  73.8978749 102.0137234
 170.7588790  73.3055784  99.7327728 170.1922276  73.4250000 101.1580000
 168.7750000  73.4250000 101.1580000 168.8960000  72.4530000 101.1890000
 168.3711057  72.8761082 101.8852381 167.9773487  73.6854789 103.4437628
 167.2884599  76.5813217 102.1207677 165.9963039  75.9275211 103.1880313
 165.5964407  76.9991457 101.7882770 165.7859448  72.9240218 101.7207150
 164.3235256  73.9522270 101.7390774 165.5085857  74.0585068 103.0876063
 170.3679904  74.1184292  99.1099391 171.8521579  73.3623141  99.7547570
 170.5413253  74.3547113 101.6163684 170.5377374  72.6044533 101.7955830
 168.4706078  74.3565210 101.1580000 169.7460000  71.0000000 101.3300000
 166.2650000  76.6200000 110.1270000 166.7030000  76.2980000 108.8090000
 168.2196870  76.4310422 108.7410128 168.8258325  75.5304892 109.6652661
 165.2950000  76.5030000 110.1070000 166.2231500  76.9810745 108.1019185
 166.3944998  75.2698257 108.5959032 168.5357786  77.4439699 109.0120657
 168.5878866  76.1980970 107.7384997 168.3912520  75.7153657 110.5208065
 168.1970000  73.8360000 115.5510000 166.1430000  74.9830000 114.4350000
 166.2539214  76.2161885 115.3299740 165.3788707  73.8978749 115.1797234
 170.7588790  73.3055784 112.8987728 170.1922276  73.4250000 114.3240000
 168.7750000  73.4250000 114.3240000 168.8960000  72.4530000 114.3550000
 168.3711057  72.8761082 115.0512381 167.9773487  73.6854789 116.6097628
 167.2884599  76.5813217 115.2867677 165.9963039  75.9275211 116.3540313
 165.5964407  76.9991457 114.9542770 165.7859448  72.9240218 114.8867150
 164.3235256  73.9522270 114.9050774 165.5085857  74.0585068 116.2536063
 170.3679904  74.1184292 112.2759391 171.8521579  73.3623141 112.9207570
 170.5413253  74.3547113 114.7823684 170.5377374  72.6044533 114.9615830
 168.4706078  74.3565210 114.3240000 169.7460000  71.0000000 114.4960000
 166.2650000  76.6200000 123.2930000 166.7030000  76.2980000 121.9750000
 168.2196870  76.4310422 121.9070128 168.8258325  75.5304892 122.8312661
 165.2950000  76.5030000 123.2730000 166.2231500  76.9810745 121.2679185
 166.3944998  75.2698257 121.7619032 168.5357786  77.4439699 122.1780657
 168.5878866  76.1980970 120.9044997 168.3912520  75.7153657 123.6868065
 168.1970000  73.8360000 128.7160000 166.1430000  74.9830000 127.6000000
 166.2539214  76.2161885 128.4949740 165.3788707  73.8978749 128.3447234
 170.7588790  73.3055784 126.0637728 170.1922276  73.4250000 127.4890000
 168.7750000  73.4250000 127.4890000 168.8960000  72.4530000 127.5200000
 168.3711057  72.8761082 128.2162381 167.9773487  73.6854789 129.7747628
 167.2884599  76.5813217 128.4517677 165.9963039  75.9275211 129.5190313
 165.5964407  76.9991457 128.1192770 165.7859448  72.9240218 128.0517150
 164.3235256  73.9522270 128.0700774 165.5085857  74.0585068 129.4186063
 170.3679904  74.1184292 125.4409391 171.8521579  73.3623141 126.0857570
 170.5413253  74.3547113 127.9473684 170.5377374  72.6044533 128.1265830
 168.4706078  74.3565210 127.4890000 169.7460000  71.0000000 127.6610000
 166.2650000  76.6200000 136.4580000 166.7030000  76.2980000 135.1400000
 168.2196870  76.4310422 135.0720128 168.8258325  75.5304892 135.9962661
 165.2950000  76.5030000 136.4380000 166.2231500  76.9810745 134.4329185
 166.3944998  75.2698257 134.9269032 168.5357786  77.4439699 135.3430657
 168.5878866  76.1980970 134.0694997 168.3912520  75.7153657 136.8518065
 168.1970000  73.8360000 141.8810000 166.1430000  74.9830000 140.7650000
 166.2539214  76.2161885 141.6599740 165.3788707  73.8978749 141.5097234
 170.7588790  73.3055784 139.2287728 170.1922276  73.4250000 140.6540000
 168.7750000  73.4250000 140.6540000 168.8960000  72.4530000 140.6850000
 168.3711057  72.8761082 141.3812381 167.9773487  73.6854789 142.9397628
 167.2884599  76.5813217 141.6167677 165.9963039  75.9275211 142.6840313
 165.5964407  76.9991457 141.2842770 165.7859448  72.9240218 141.2167150
 164.3235256  73.9522270 141.2350774 165.5085857  74.0585068 142.5836063
 170.3679904  74.1184292 138.6059391 171.8521579  73.3623141 139.2507570
 170.5413253  74.3547113 141.1123684 170.5377374  72.6044533 141.2915830
 168.4706078  74.3565210 140.6540000 169.7460000  71.0000000 140.8260000
 166.2650000  76.6200000 149.6230000 166.7030000  76.2980000 148.3050000
 168.2196870  76.4310422 148.2370128 168.8258325  75.5304892 149.1612661
 165.2950000  76.5030000 149.6030000 166.2231500  76.9810745 147.5979185
 166.3944998  75.2698257 148.0919032 168.5357786  77.4439699 148.5080657
 168.5878866  76.1980970 147.2344997 168.3912520  75.7153657 150.0168065
 168.1970000  73.8360000 155.0460000 166.1430000  74.9830000 153.9300000
 166.2539214  76.2161885 154.8249740 165.3788707  73.8978749 154.6747234
 170.7588790  73.3055784 152.3937728 170.1922276  73.4250000 153.8190000
 168.7750000  73.4250000 153.8190000 168.8960000  72.4530000 153.8500000
 168.3711057  72.8761082 154.5462381 167.9773487  73.6854789 156.1047628
 167.2884599  76.5813217 154.7817677 165.9963039  75.9275211 155.8490313
 165.5964407  76.9991457 154.4492770 165.7859448  72.9240218 154.3817150
 164.3235256  73.9522270 154.4000774 165.5085857  74.0585068 155.7486063
 170.3679904  74.1184292 151.7709391 171.8521579  73.3623141 152.4157570
 170.5413253  74.3547113 154.2773684 170.5377374  72.6044533 154.4565830
 168.4706078  74.3565210 153.8190000 169.7460000  71.0000000 153.9910000
 166.2650000  76.6200000 162.7880000 166.7030000  76.2980000 161.4700000
 168.2196870  76.4310422 161.4020128 168.8258325  75.5304892 162.3262661
 165.2950000  76.5030000 162.7680000 166.2231500  76.9810745 160.7629185
 166.3944998  75.2698257 161.2569032 168.5357786  77.4439699 161.6730657
 168.5878866  76.1980970 160.3994997 168.3912520  75.7153657 163.1818065
 168.1970000  73.8360000 168.2110000 166.1430000  74.9830000 167.0950000
 166.2539214  76.2161885 167.9899740 165.3788707  73.8978749 167.8397234
 170.7588790  73.3055784 165.5587728 170.1922276  73.4250000 166.9840000
 168.7750000  73.4250000 166.9840000 168.8960000  72.4530000 167.0150000
 168.3711057  72.8761082 167.7112381 167.9773487  73.6854789 169.2697628
 167.2884599  76.5813217 167.9467677 165.9963039  75.9275211 169.0140313
 165.5964407  76.9991457 167.6142770 165.7859448  72.9240218 167.5467150
 164.3235256  73.9522270 167.5650774 165.5085857  74.0585068 168.9136063
 170.3679904  74.1184292 164.9359391 171.8521579  73.3623141 165.5807570
 170.5413253  74.3547113 167.4423684 170.5377374  72.6044533 167.6215830
 168.4706078  74.3565210 166.9840000 169.7460000  71.0000000 167.1560000
 166.2650000  76.6200000 175.9530000 166.7030000  76.2980000 174.6350000
 168.2196870  76.4310422 174.5670128 168.8258325  75.5304892 175.4912661
 165.2950000  76.5030000 175.9330000 166.2231500  76.9810745 173.9279185
 166.3944998  75.2698257 174.4219032 168.5357786  77.4439699 174.8380657
 168.5878866  76.1980970 173.5644997 168.3912520  75.7153657 176.3468065
 168.1970000  73.8360000 181.3770000 166.1430000  74.9830000 180.2610000
 166.2539214  76.2161885 181.1559740 165.3788707  73.8978749 181.0057234
 170.7588790  73.3055784 178.7247728 170.1922276  73.4250000 180.1500000
 168.7750000  73.4250000 180.1500000 168.8960000  72.4530000 180.1810000
 168.3711057  72.8761082 180.8772381 167.9773487  73.6854789 182.4357628
 167.2884599  76.5813217 181.1127677 165.9963039  75.9275211 182.1800313
 165.5964407  76.9991457 180.7802770 165.7859448  72.9240218 180.7127150
 164.3235256  73.9522270 180.7310774 165.5085857  74.0585068 182.0796063
 170.3679904  74.1184292 178.1019391 171.8521579  73.3623141 178.7467570
 170.5413253  74.3547113 180.6083684 170.5377374  72.6044533 180.7875830
 168.4706078  74.3565210 180.1500000 169.7460000  71.0000000 180.3220000
 166.2650000  76.6200000 189.1190000 166.7030000  76.2980000 187.8010000
 168.2196870  76.4310422 187.7330128 168.8258325  75.5304892 188.6572661
 165.2950000  76.5030000 189.0990000 166.2231500  76.9810745 187.0939185
 166.3944998  75.2698257 187.5879032 168.5357786  77.4439699 188.0040657
 168.5878866  76.1980970 186.7304997 168.3912520  75.7153657 189.5128065
 168.1970000  73.8360000 194.5420000 166.1430000  74.9830000 193.4260000
 166.2539214  76.2161885 194.3209740 165.3788707  73.8978749 194.1707234
 170.7588790  73.3055784 191.8897728 170.1922276  73.4250000 193.3150000
 168.7750000  73.4250000 193.3150000 168.8960000  72.4530000 193.3460000
 168.3711057  72.8761082 194.0422381 167.9773487  73.6854789 195.6007628
 167.2884599  76.5813217 194.2777677 165.9963039  75.9275211 195.3450313
 165.5964407  76.9991457 193.9452770 165.7859448  72.9240218 193.8777150
 164.3235256  73.9522270 193.8960774 165.5085857  74.0585068 195.2446063
 170.3679904  74.1184292 191.2669391 171.8521579  73.3623141 191.9117570
 170.5413253  74.3547113 193.7733684 170.5377374  72.6044533 193.9525830
 168.4706078  74.3565210 193.3150000 169.7460000  71.0000000 193.4870000
 166.2650000  76.6200000 202.2840000 166.7030000  76.2980000 200.9660000
 168.2196870  76.4310422 200.8980128 168.8258325  75.5304892 201.8222661
 165.2950000  76.5030000 202.2640000 166.2231500  76.9810745 200.2589185
 166.3944998  75.2698257 200.7529032 168.5357786  77.4439699 201.1690657
 168.5878866  76.1980970 199.8954997 168.3912520  75.7153657 202.6778065
 168.1970000  81.1520000  76.0550000 166.1430000  82.2990000  74.9390000
 166.2539214  83.5321885  75.8339740 165.3788707  81.2138749  75.6837234
 170.7588790  80.6215784  73.4027728 170.1922276  80.7410000  74.8280000
 168.7750000  80.7410000  74.8280000 168.8960000  79.7690000  74.8590000
 168.3711057  80.1921082  75.5552381 167.9773487  81.0014789  77.1137628
 167.2884599  83.8973217  75.7907677 165.9963039  83.2435211  76.8580313
 165.5964407  84.3151457  75.4582770 165.7859448  80.2400218  75.3907150
 164.3235256  81.2682270  75.4090774 165.5085857  81.3745068  76.7576063
 170.3679904  81.4344292  72.7799391 171.8521579  80.6783141  73.4247570
 170.5413253  81.6707113  75.2863684 170.5377374  79.9204533  75.4655830
 168.4706078  81.6725210  74.8280000 169.7460000  78.3160000  75.0000000
 166.2650000  83.9360000  83.7970000 166.7030000  83.6140000  82.4790000
 168.2196870  83.7470422  82.4110128 168.8258325  82.8464892  83.3352661
 165.2950000  83.8190000  83.7770000 166.2231500  84.2970745  81.7719185
 166.3944998  82.5858257  82.2659032 168.5357786  84.7599699  82.6820657
 168.5878866  83.5140970  81.4084997 168.3912520  83.0313657  84.1908065
 168.1970000  81.1520000  89.2200000 166.1430000  82.2990000  88.1040000
 166.2539214  83.5321885  88.9989740 165.3788707  81.2138749  88.8487234
 170.7588790  80.6215784  86.5677728 170.1922276  80.7410000  87.9930000
 168.7750000  80.7410000  87.9930000 168.8960000  79.7690000  88.0240000
 168.3711057  80.1921082  88.7202381 167.9773487  81.0014789  90.2787628
 167.2884599  83.8973217  88.9557677 165.9963039  83.2435211  90.0230313
 165.5964407  84.3151457  88.6232770 165.7859448  80.2400218  88.5557150
 164.3235256  81.2682270  88.5740774 165.5085857  81.3745068  89.9226063
 170.3679904  81.4344292  85.9449391 171.8521579  80.6783141  86.5897570
 170.5413253  81.6707113  88.4513684 170.5377374  79.9204533  88.6305830
 168.4706078  81.6725210  87.9930000 169.7460000  78.3160000  88.1650000
 166.2650000  83.9360000  96.9620000 166.7030000  83.6140000  95.6440000
 168.2196870  83.7470422  95.5760128 168.8258325  82.8464892  96.5002661
 165.2950000  83.8190000  96.9420000 166.2231500  84.2970745  94.9369185
 166.3944998  82.5858257  95.4309032 168.5357786  84.7599699  95.8470657
 168.5878866  83.5140970  94.5734997 168.3912520  83.0313657  97.3558065
 168.1970000  81.1520000 102.3850000 166.1430000  82.2990000 101.2690000
 166.2539214  83.5321885 102.1639740 165.3788707  81.2138749 102.0137234
 170.7588790  80.6215784  99.7327728 170.1922276  80.7410000 101.1580000
 168.7750000  80.7410000 101.1580000 168.8960000  79.7690000 101.1890000
 168.3711057  80.1921082 101.8852381 167.9773487  81.0014789 103.4437628
 167.2884599  83.8973217 102.1207677 165.9963039  83.2435211 103.1880313
 165.5964407  84.3151457 101.7882770 165.7859448  80.2400218 101.7207150
 164.3235256  81.2682270 101.7390774 165.5085857  81.3745068 103.0876063
 170.3679904  81.4344292  99.1099391 171.8521579  80.6783141  99.7547570
 170.5413253  81.6707113 101.6163684 170.5377374  79.9204533 101.7955830
 168.4706078  81.6725210 101.1580000 169.7460000  78.3160000 101.3300000
 166.2650000  83.9360000 110.1270000 166.7030000  83.6140000 108.8090000
 168.2196870  83.7470422 108.7410128 168.8258325  82.8464892 109.6652661
 165.2950000  83.8190000 110.1070000 166.2231500  84.2970745 108.1019185
 166.3944998  82.5858257 108.5959032 168.5357786  84.7599699 109.0120657
 168.5878866  83.5140970 107.7384997 168.3912520  83.0313657 110.5208065
 168.1970000  81.1520000 115.5510000 166.1430000  82.2990000 114.4350000
 166.2539214  83.5321885 115.3299740 165.3788707  81.2138749 115.1797234
 170.7588790  80.6215784 112.8987728 170.1922276  80.7410000 114.3240000
 168.7750000  80.7410000 114.3240000 168.8960000  79.7690000 114.3550000
 168.3711057  80.1921082 115.0512381 167.9773487  81.0014789 116.6097628
 167.2884599  83.8973217 115.2867677 165.9963039  83.2435211 116.3540313
 165.5964407  84.3151457 114.9542770 165.7859448  80.2400218 114.8867150
 164.3235256  81.2682270 114.9050774 165.5085857  81.3745068 116.2536063
 170.3679904  81.4344292 112.2759391 171.8521579  80.6783141 112.9207570
 170.5413253  81.6707113 114.7823684 170.5377374  79.9204533 114.9615830
 168.4706078  81.6725210 114.3240000 169.7460000  78.3160000 114.4960000
 166.2650000  83.9360000 123.2930000 166.7030000  83.6140000 121.9750000
 168.2196870  83.7470422 121.9070128 168.8258325  82.8464892 122.8312661
 165.2950000  83.8190000 123.2730000 166.2231500  84.2970745 121.2679185
 166.3944998  82.5858257 121.7619032 168.5357786  84.7599699 122.1780657
 168.5878866  83.5140970 120.9044997 168.3912520  83.0313657 123.6868065
 168.1970000  81.1520000 128.7160000 166.1430000  82.2990000 127.6000000
 166.2539214  83.5321885 128.4949740 165.3788707  81.2138749 128.3447234
 170.7588790  80.6215784 126.0637728 170.1922276  80.7410000 127.4890000
 168.7750000  80.7410000 127.4890000 168.8960000  79.7690000 127.5200000
 168.3711057  80.1921082 128.2162381 167.9773487  81.0014789 129.7747628
 167.2884599  83.8973217 128.4517677 165.9963039  83.2435211 129.5190313
 165.5964407  84.3151457 128.1192770 165.7859448  80.2400218 128.0517150
 164.3235256  81.2682270 128.0700774 165.5085857  81.3745068 129.4186063
 170.3679904  81.4344292 125.4409391 171.8521579  80.6783141 126.0857570
 170.5413253  81.6707113 127.9473684 170.5377374  79.9204533 128.1265830
 168.4706078  81.6725210 127.4890000 169.7460000  78.3160000 127.6610000
 166.2650000  83.9360000 136.4580000 166.7030000  83.6140000 135.1400000
 168.2196870  83.7470422 135.0720128 168.8258325  82.8464892 135.9962661
 165.2950000  83.8190000 136.4380000 166.2231500  84.2970745 134.4329185
 166.3944998  82.5858257 134.9269032 168.5357786  84.7599699 135.3430657
 168.5878866  83.5140970 134.0694997 168.3912520  83.0313657 136.8518065
 168.1970000  81.1520000 141.8810000 166.1430000  82.2990000 140.7650000
 166.2539214  83.5321885 141.6599740 165.3788707  81.2138749 141.5097234
 170.7588790  80.6215784 139.2287728 170.1922276  80.7410000 140.6540000
 168.7750000  80.7410000 140.6540000 168.8960000  79.7690000 140.6850000
 168.3711057  80.1921082 141.3812381 167.9773487  81.0014789 142.9397628
 167.2884599  83.8973217 141.6167677 165.9963039  83.2435211 142.6840313
 165.5964407  84.3151457 141.2842770 165.7859448  80.2400218 141.2167150
 164.3235256  81.2682270 141.2350774 165.5085857  81.3745068 142.5836063
 170.3679904  81.4344292 138.6059391 171.8521579  80.6783141 139.2507570
 170.5413253  81.6707113 141.1123684 170.5377374  79.9204533 141.2915830
 168.4706078  81.6725210 140.6540000 169.7460000  78.3160000 140.8260000
 166.2650000  83.9360000 149.6230000 166.7030000  83.6140000 148.3050000
 168.2196870  83.7470422 148.2370128 168.8258325  82.8464892 149.1612661
 165.2950000  83.8190000 149.6030000 166.2231500  84.2970745 147.5979185
 166.3944998  82.5858257 148.0919032 168.5357786  84.7599699 148.5080657
 168.5878866  83.5140970 147.2344997 168.3912520  83.0313657 150.0168065
 168.1970000  81.1520000 155.0460000 166.1430000  82.2990000 153.9300000
 166.2539214  83.5321885 154.8249740 165.3788707  81.2138749 154.6747234
 170.7588790  80.6215784 152.3937728 170.1922276  80.7410000 153.8190000
 168.7750000  80.7410000 153.8190000 168.8960000  79.7690000 153.8500000
 168.3711057  80.1921082 154.5462381 167.9773487  81.0014789 156.1047628
 167.2884599  83.8973217 154.7817677 165.9963039  83.2435211 155.8490313
 165.5964407  84.3151457 154.4492770 165.7859448  80.2400218 154.3817150
 164.3235256  81.2682270 154.4000774 165.5085857  81.3745068 155.7486063
 170.3679904  81.4344292 151.7709391 171.8521579  80.6783141 152.4157570
 170.5413253  81.6707113 154.2773684 170.5377374  79.9204533 154.4565830
 168.4706078  81.6725210 153.8190000 169.7460000  78.3160000 153.9910000
 166.2650000  83.9360000 162.7880000 166.7030000  83.6140000 161.4700000
 168.2196870  83.7470422 161.4020128 168.8258325  82.8464892 162.3262661
 165.2950000  83.8190000 162.7680000 166.2231500  84.2970745 160.7629185
 166.3944998  82.5858257 161.2569032 168.5357786  84.7599699 161.6730657
 168.5878866  83.5140970 160.3994997 168.3912520  83.0313657 163.1818065
 168.1970000  81.1520000 168.2110000 166.1430000  82.2990000 167.0950000
 166.2539214  83.5321885 167.9899740 165.3788707  81.2138749 167.8397234
 170.7588790  80.6215784 165.5587728 170.1922276  80.7410000 166.9840000
 168.7750000  80.7410000 166.9840000 168.8960000  79.7690000 167.0150000
 168.3711057  80.1921082 167.7112381 167.9773487  81.0014789 169.2697628
 167.2884599  83.8973217 167.9467677 165.9963039  83.2435211 169.0140313
 165.5964407  84.3151457 167.6142770 165.7859448  80.2400218 167.5467150
 164.3235256  81.2682270 167.5650774 165.5085857  81.3745068 168.9136063
 170.3679904  81.4344292 164.9359391 171.8521579  80.6783141 165.5807570
 170.5413253  81.6707113 167.4423684 170.5377374  79.9204533 167.6215830
 168.4706078  81.6725210 166.9840000 169.7460000  78.3160000 167.1560000
 166.2650000  83.9360000 175.9530000 166.7030000  83.6140000 174.6350000
 168.2196870  83.7470422 174.5670128 168.8258325  82.8464892 175.4912661
 165.2950000  83.8190000 175.9330000 166.2231500  84.2970745 173.9279185
 166.3944998  82.5858257 174.4219032 168.5357786  84.7599699 174.8380657
 168.5878866  83.5140970 173.5644997 168.3912520  83.0313657 176.3468065
 168.1970000  81.1520000 181.3770000 166.1430000  82.2990000 180.2610000
 166.2539214  83.5321885 181.1559740 165.3788707  81.2138749 181.0057234
 170.7588790  80.6215784 178.7247728 170.1922276  80.7410000 180.1500000
 168.7750000  80.7410000 180.1500000 168.8960000  79.7690000 180.1810000
 168.3711057  80.1921082 180.8772381 167.9773487  81.0014789 182.4357628
 167.2884599  83.8973217 181.1127677 165.9963039  83.2435211 182.1800313
 165.5964407  84.3151457 180.7802770 165.7859448  80.2400218 180.7127150
 164.3235256  81.2682270 180.7310774 165.5085857  81.3745068 182.0796063
 170.3679904  81.4344292 178.1019391 171.8521579  80.6783141 178.7467570
 170.5413253  81.6707113 180.6083684 170.5377374  79.9204533 180.7875830
 168.4706078  81.6725210 180.1500000 169.7460000  78.3160000 180.3220000
 166.2650000  83.9360000 189.1190000 166.7030000  83.6140000 187.8010000
 168.2196870  83.7470422 187.7330128 168.8258325  82.8464892 188.6572661
 165.2950000  83.8190000 189.0990000 166.2231500  84.2970745 187.0939185
 166.3944998  82.5858257 187.5879032 168.5357786  84.7599699 188.0040657
 168.5878866  83.5140970 186.7304997 168.3912520  83.0313657 189.5128065
 168.1970000  81.1520000 194.5420000 166.1430000  82.2990000 193.4260000
 166.2539214  83.5321885 194.3209740 165.3788707  81.2138749 194.1707234
 170.7588790  80.6215784 191.8897728 170.1922276  80.7410000 193.3150000
 168.7750000  80.7410000 193.3150000 168.8960000  79.7690000 193.3460000
 168.3711057  80.1921082 194.0422381 167.9773487  81.0014789 195.6007628
 167.2884599  83.8973217 194.2777677 165.9963039  83.2435211 195.3450313
 165.5964407  84.3151457 193.9452770 165.7859448  80.2400218 193.8777150
 164.3235256  81.2682270 193.8960774 165.5085857  81.3745068 195.2446063
 170.3679904  81.4344292 191.2669391 171.8521579  80.6783141 191.9117570
 170.5413253  81.6707113 193.7733684 170.5377374  79.9204533 193.9525830
 168.4706078  81.6725210 193.3150000 169.7460000  78.3160000 193.4870000
 166.2650000  83.9360000 202.2840000 166.7030000  83.6140000 200.9660000
 168.2196870  83.7470422 200.8980128 168.8258325  82.8464892 201.8222661
 165.2950000  83.8190000 202.2640000 166.2231500  84.2970745 200.2589185
 166.3944998  82.5858257 200.7529032 168.5357786  84.7599699 201.1690657
 168.5878866  83.5140970 199.8954997 168.3912520  83.0313657 202.6778065
 168.1970000  88.4690000  76.0550000 166.1430000  89.6160000  74.9390000
 166.2539214  90.8491885  75.8339740 165.3788707  88.5308749  75.6837234
 170.7588790  87.9385784  73.4027728 170.1922276  88.0580000  74.8280000
 168.7750000  88.0580000  74.8280000 168.8960000  87.0860000  74.8590000
 168.3711057  87.5091082  75.5552381 167.9773487  88.3184789  77.1137628
 167.2884599  91.2143217  75.7907677 165.9963039  90.5605211  76.8580313
 165.5964407  91.6321457  75.4582770 165.7859448  87.5570218  75.3907150
 164.3235256  88.5852270  75.4090774 165.5085857  88.6915068  76.7576063
 170.3679904  88.7514292  72.7799391 171.8521579  87.9953141  73.4247570
 170.5413253  88.9877113  75.2863684 170.5377374  87.2374533  75.4655830
 168.4706078  88.9895210  74.8280000 169.7460000  85.6330000  75.0000000
 166.2650000  91.2530000  83.7970000 166.7030000  90.9310000  82.4790000
 168.2196870  91.0640422  82.4110128 168.8258325  90.1634892  83.3352661
 165.2950000  91.1360000  83.7770000 166.2231500  91.6140745  81.7719185
 166.3944998  89.9028257  82.2659032 168.5357786  92.0769699  82.6820657
 168.5878866  90.8310970  81.4084997 168.3912520  90.3483657  84.1908065
 168.1970000  88.4690000  89.2200000 166.1430000  89.6160000  88.1040000
 166.2539214  90.8491885  88.9989740 165.3788707  88.5308749  88.8487234
 170.7588790  87.9385784  86.5677728 170.1922276  88.0580000  87.9930000
 168.7750000  88.0580000  87.9930000 168.8960000  87.0860000  88.0240000
 168.3711057  87.5091082  88.7202381 167.9773487  88.3184789  90.2787628
 167.2884599  91.2143217  88.9557677 165.9963039  90.5605211  90.0230313
 165.5964407  91.6321457  88.6232770 165.7859448  87.5570218  88.5557150
 164.3235256  88.5852270  88.5740774 165.5085857  88.6915068  89.9226063
 170.3679904  88.7514292  85.9449391 171.8521579  87.9953141  86.5897570
 170.5413253  88.9877113  88.4513684 170.5377374  87.2374533  88.6305830
 168.4706078  88.9895210  87.9930000 169.7460000  85.6330000  88.1650000
 166.2650000  91.2530000  96.9620000 166.7030000  90.9310000  95.6440000
 168.2196870  91.0640422  95.5760128 168.8258325  90.1634892  96.5002661
 165.2950000  91.1360000  96.9420000 166.2231500  91.6140745  94.9369185
 166.3944998  89.9028257  95.4309032 168.5357786  92.0769699  95.8470657
 168.5878866  90.8310970  94.5734997 168.3912520  90.3483657  97.3558065
 168.1970000  88.4690000 102.3850000 166.1430000  89.6160000 101.2690000
 166.2539214  90.8491885 102.1639740 165.3788707  88.5308749 102.0137234
 170.7588790  87.9385784  99.7327728 170.1922276  88.0580000 101.1580000
 168.7750000  88.0580000 101.1580000 168.8960000  87.0860000 101.1890000
 168.3711057  87.5091082 101.8852381 167.9773487  88.3184789 103.4437628
 167.2884599  91.2143217 102.1207677 165.9963039  90.5605211 103.1880313
 165.5964407  91.6321457 101.7882770 165.7859448  87.5570218 101.7207150
 164.3235256  88.5852270 101.7390774 165.5085857  88.6915068 103.0876063
 170.3679904  88.7514292  99.1099391 171.8521579  87.9953141  99.7547570
 170.5413253  88.9877113 101.6163684 170.5377374  87.2374533 101.7955830
 168.4706078  88.9895210 101.1580000 169.7460000  85.6330000 101.3300000
 166.2650000  91.2530000 110.1270000 166.7030000  90.9310000 108.8090000
 168.2196870  91.0640422 108.7410128 168.8258325  90.1634892 109.6652661
 165.2950000  91.1360000 110.1070000 166.2231500  91.6140745 108.1019185
 166.3944998  89.9028257 108.5959032 168.5357786  92.0769699 109.0120657
 168.5878866  90.8310970 107.7384997 168.3912520  90.3483657 110.5208065
 168.1970000  88.4690000 115.5510000 166.1430000  89.6160000 114.4350000
 166.2539214  90.8491885 115.3299740 165.3788707  88.5308749 115.1797234
 170.7588790  87.9385784 112.8987728 170.1922276  88.0580000 114.3240000
 168.7750000  88.0580000 114.3240000 168.8960000  87.0860000 114.3550000
 168.3711057  87.5091082 115.0512381 167.9773487  88.3184789 116.6097628
 167.2884599  91.2143217 115.2867677 165.9963039  90.5605211 116.3540313
 165.5964407  91.6321457 114.9542770 165.7859448  87.5570218 114.8867150
 164.3235256  88.5852270 114.9050774 165.5085857  88.6915068 116.2536063
 170.3679904  88.7514292 112.2759391 171.8521579  87.9953141 112.9207570
 170.5413253  88.9877113 114.7823684 170.5377374  87.2374533 114.9615830
 168.4706078  88.9895210 114.3240000 169.7460000  85.6330000 114.4960000
 166.2650000  91.2530000 123.2930000 166.7030000  90.9310000 121.9750000
 168.2196870  91.0640422 121.9070128 168.8258325  90.1634892 122.8312661
 165.2950000  91.1360000 123.2730000 166.2231500  91.6140745 121.2679185
 166.3944998  89.9028257 121.7619032 168.5357786  92.0769699 122.1780657
 168.5878866  90.8310970 120.9044997 168.3912520  90.3483657 123.6868065
 168.1970000  88.4690000 128.7160000 166.1430000  89.6160000 127.6000000
 166.2539214  90.8491885 128.4949740 165.3788707  88.5308749 128.3447234
 170.7588790  87.9385784 126.0637728 170.1922276  88.0580000 127.4890000
 168.7750000  88.0580000 127.4890000 168.8960000  87.0860000 127.5200000
 168.3711057  87.5091082 128.2162381 167.9773487  88.3184789 129.7747628
 167.2884599  91.2143217 128.4517677 165.9963039  90.5605211 129.5190313
 165.5964407  91.6321457 128.1192770 165.7859448  87.5570218 128.0517150
 164.3235256  88.5852270 128.0700774 165.5085857  88.6915068 129.4186063
 170.3679904  88.7514292 125.4409391 171.8521579  87.9953141 126.0857570
 170.5413253  88.9877113 127.9473684 170.5377374  87.2374533 128.1265830
 168.4706078  88.9895210 127.4890000 169.7460000  85.6330000 127.6610000
 166.2650000  91.2530000 136.4580000 166.7030000  90.9310000 135.1400000
 168.2196870  91.0640422 135.0720128 168.8258325  90.1634892 135.9962661
 165.2950000  91.1360000 136.4380000 166.2231500  91.6140745 134.4329185
 166.3944998  89.9028257 134.9269032 168.5357786  92.0769699 135.3430657
 168.5878866  90.8310970 134.0694997 168.3912520  90.3483657 136.8518065
 168.1970000  88.4690000 141.8810000 166.1430000  89.6160000 140.7650000
 166.2539214  90.8491885 141.6599740 165.3788707  88.5308749 141.5097234
 170.7588790  87.9385784 139.2287728 170.1922276  88.0580000 140.6540000
 168.7750000  88.0580000 140.6540000 168.8960000  87.0860000 140.6850000
 168.3711057  87.5091082 141.3812381 167.9773487  88.3184789 142.9397628
 167.2884599  91.2143217 141.6167677 165.9963039  90.5605211 142.6840313
 165.5964407  91.6321457 141.2842770 165.7859448  87.5570218 141.2167150
 164.3235256  88.5852270 141.2350774 165.5085857  88.6915068 142.5836063
 170.3679904  88.7514292 138.6059391 171.8521579  87.9953141 139.2507570
 170.5413253  88.9877113 141.1123684 170.5377374  87.2374533 141.2915830
 168.4706078  88.9895210 140.6540000 169.7460000  85.6330000 140.8260000
 166.2650000  91.2530000 149.6230000 166.7030000  90.9310000 148.3050000
 168.2196870  91.0640422 148.2370128 168.8258325  90.1634892 149.1612661
 165.2950000  91.1360000 149.6030000 166.2231500  91.6140745 147.5979185
 166.3944998  89.9028257 148.0919032 168.5357786  92.0769699 148.5080657
 168.5878866  90.8310970 147.2344997 168.3912520  90.3483657 150.0168065
 168.1970000  88.4690000 155.0460000 166.1430000  89.6160000 153.9300000
 166.2539214  90.8491885 154.8249740 165.3788707  88.5308749 154.6747234
 170.7588790  87.9385784 152.3937728 170.1922276  88.0580000 153.8190000
 168.7750000  88.0580000 153.8190000 168.8960000  87.0860000 153.8500000
 168.3711057  87.5091082 154.5462381 167.9773487  88.3184789 156.1047628
 167.2884599  91.2143217 154.7817677 165.9963039  90.5605211 155.8490313
 165.5964407  91.6321457 154.4492770 165.7859448  87.5570218 154.3817150
 164.3235256  88.5852270 154.4000774 165.5085857  88.6915068 155.7486063
 170.3679904  88.7514292 151.7709391 171.8521579  87.9953141 152.4157570
 170.5413253  88.9877113 154.2773684 170.5377374  87.2374533 154.4565830
 168.4706078  88.9895210 153.8190000 169.7460000  85.6330000 153.9910000
 166.2650000  91.2530000 162.7880000 166.7030000  90.9310000 161.4700000
 168.2196870  91.0640422 161.4020128 168.8258325  90.1634892 162.3262661
 165.2950000  91.1360000 162.7680000 166.2231500  91.6140745 160.7629185
 166.3944998  89.9028257 161.2569032 168.5357786  92.0769699 161.6730657
 168.5878866  90.8310970 160.3994997 168.3912520  90.3483657 163.1818065
 168.1970000  88.4690000 168.2110000 166.1430000  89.6160000 167.0950000
 166.2539214  90.8491885 167.9899740 165.3788707  88.5308749 167.8397234
 170.7588790  87.9385784 165.5587728 170.1922276  88.0580000 166.9840000
 168.7750000  88.0580000 166.9840000 168.8960000  87.0860000 167.0150000
 168.3711057  87.5091082 167.7112381 167.9773487  88.3184789 169.2697628
 167.2884599  91.2143217 167.9467677 165.9963039  90.5605211 169.0140313
 165.5964407  91.6321457 167.6142770 165.7859448  87.5570218 167.5467150
 164.3235256  88.5852270 167.5650774 165.5085857  88.6915068 168.9136063
 170.3679904  88.7514292 164.9359391 171.8521579  87.9953141 165.5807570
 170.5413253  88.9877113 167.4423684 170.5377374  87.2374533 167.6215830
 168.4706078  88.9895210 166.9840000 169.7460000  85.6330000 167.1560000
 166.2650000  91.2530000 175.9530000 166.7030000  90.9310000 174.6350000
 168.2196870  91.0640422 174.5670128 168.8258325  90.1634892 175.4912661
 165.2950000  91.1360000 175.9330000 166.2231500  91.6140745 173.9279185
 166.3944998  89.9028257 174.4219032 168.5357786  92.0769699 174.8380657
 168.5878866  90.8310970 173.5644997 168.3912520  90.3483657 176.3468065
 168.1970000  88.4690000 181.3770000 166.1430000  89.6160000 180.2610000
 166.2539214  90.8491885 181.1559740 165.3788707  88.5308749 181.0057234
 170.7588790  87.9385784 178.7247728 170.1922276  88.0580000 180.1500000
 168.7750000  88.0580000 180.1500000 168.8960000  87.0860000 180.1810000
 168.3711057  87.5091082 180.8772381 167.9773487  88.3184789 182.4357628
 167.2884599  91.2143217 181.1127677 165.9963039  90.5605211 182.1800313
 165.5964407  91.6321457 180.7802770 165.7859448  87.5570218 180.7127150
 164.3235256  88.5852270 180.7310774 165.5085857  88.6915068 182.0796063
 170.3679904  88.7514292 178.1019391 171.8521579  87.9953141 178.7467570
 170.5413253  88.9877113 180.6083684 170.5377374  87.2374533 180.7875830
 168.4706078  88.9895210 180.1500000 169.7460000  85.6330000 180.3220000
 166.2650000  91.2530000 189.1190000 166.7030000  90.9310000 187.8010000
 168.2196870  91.0640422 187.7330128 168.8258325  90.1634892 188.6572661
 165.2950000  91.1360000 189.0990000 166.2231500  91.6140745 187.0939185
 166.3944998  89.9028257 187.5879032 168.5357786  92.0769699 188.0040657
 168.5878866  90.8310970 186.7304997 168.3912520  90.3483657 189.5128065
 168.1970000  88.4690000 194.5420000 166.1430000  89.6160000 193.4260000
 166.2539214  90.8491885 194.3209740 165.3788707  88.5308749 194.1707234
 170.7588790  87.9385784 191.8897728 170.1922276  88.0580000 193.3150000
 168.7750000  88.0580000 193.3150000 168.8960000  87.0860000 193.3460000
 168.3711057  87.5091082 194.0422381 167.9773487  88.3184789 195.6007628
 167.2884599  91.2143217 194.2777677 165.9963039  90.5605211 195.3450313
 165.5964407  91.6321457 193.9452770 165.7859448  87.5570218 193.8777150
 164.3235256  88.5852270 193.8960774 165.5085857  88.6915068 195.2446063
 170.3679904  88.7514292 191.2669391 171.8521579  87.9953141 191.9117570
 170.5413253  88.9877113 193.7733684 170.5377374  87.2374533 193.9525830
 168.4706078  88.9895210 193.3150000 169.7460000  85.6330000 193.4870000
 166.2650000  91.2530000 202.2840000 166.7030000  90.9310000 200.9660000
 168.2196870  91.0640422 200.8980128 168.8258325  90.1634892 201.8222661
 165.2950000  91.1360000 202.2640000 166.2231500  91.6140745 200.2589185
 166.3944998  89.9028257 200.7529032 168.5357786  92.0769699 201.1690657
 168.5878866  90.8310970 199.8954997 168.3912520  90.3483657 202.6778065
 168.1970000  95.7850000  76.0550000 166.1430000  96.9320000  74.9390000
 166.2539214  98.1651885  75.8339740 165.3788707  95.8468749  75.6837234
 170.7588790  95.2545784  73.4027728 170.1922276  95.3740000  74.8280000
 168.7750000  95.3740000  74.8280000 168.8960000  94.4020000  74.8590000
 168.3711057  94.8251082  75.5552381 167.9773487  95.6344789  77.1137628
 167.2884599  98.5303217  75.7907677 165.9963039  97.8765211  76.8580313
 165.5964407  98.9481457  75.4582770 165.7859448  94.8730218  75.3907150
 164.3235256  95.9012270  75.4090774 165.5085857  96.0075068  76.7576063
 170.3679904  96.0674292  72.7799391 171.8521579  95.3113141  73.4247570
 170.5413253  96.3037113  75.2863684 170.5377374  94.5534533  75.4655830
 168.4706078  96.3055210  74.8280000 169.7460000  92.9490000  75.0000000
 166.2650000  98.5690000  83.7970000 166.7030000  98.2470000  82.4790000
 168.2196870  98.3800422  82.4110128 168.8258325  97.4794892  83.3352661
 165.2950000  98.4520000  83.7770000 166.2231500  98.9300745  81.7719185
 166.3944998  97.2188257  82.2659032 168.5357786  99.3929699  82.6820657
 168.5878866  98.1470970  81.4084997 168.3912520  97.6643657  84.1908065
 168.1970000  95.7850000  89.2200000 166.1430000  96.9320000  88.1040000
 166.2539214  98.1651885  88.9989740 165.3788707  95.8468749  88.8487234
 170.7588790  95.2545784  86.5677728 170.1922276  95.3740000  87.9930000
 168.7750000  95.3740000  87.9930000 168.8960000  94.4020000  88.0240000
 168.3711057  94.8251082  88.7202381 167.9773487  95.6344789  90.2787628
 167.2884599  98.5303217  88.9557677 165.9963039  97.8765211  90.0230313
 165.5964407  98.9481457  88.6232770 165.7859448  94.8730218  88.5557150
 164.3235256  95.9012270  88.5740774 165.5085857  96.0075068  89.9226063
 170.3679904  96.0674292  85.9449391 171.8521579  95.3113141  86.5897570
 170.5413253  96.3037113  88.4513684 170.5377374  94.5534533  88.6305830
 168.4706078  96.3055210  87.9930000 169.7460000  92.9490000  88.1650000
 166.2650000  98.5690000  96.9620000 166.7030000  98.2470000  95.6440000
 168.2196870  98.3800422  95.5760128 168.8258325  97.4794892  96.5002661
 165.2950000  98.4520000  96.9420000 166.2231500  98.9300745  94.9369185
 166.3944998  97.2188257  95.4309032 168.5357786  99.3929699  95.8470657
 168.5878866  98.1470970  94.5734997 168.3912520  97.6643657  97.3558065
 168.1970000  95.7850000 102.3850000 166.1430000  96.9320000 101.2690000
 166.2539214  98.1651885 102.1639740 165.3788707  95.8468749 102.0137234
 170.7588790  95.2545784  99.7327728 170.1922276  95.3740000 101.1580000
 168.7750000  95.3740000 101.1580000 168.8960000  94.4020000 101.1890000
 168.3711057  94.8251082 101.8852381 167.9773487  95.6344789 103.4437628
 167.2884599  98.5303217 102.1207677 165.9963039  97.8765211 103.1880313
 165.5964407  98.9481457 101.7882770 165.7859448  94.8730218 101.7207150
 164.3235256  95.9012270 101.7390774 165.5085857  96.0075068 103.0876063
 170.3679904  96.0674292  99.1099391 171.8521579  95.3113141  99.7547570
 170.5413253  96.3037113 101.6163684 170.5377374  94.5534533 101.7955830
 168.4706078  96.3055210 101.1580000 169.7460000  92.9490000 101.3300000
 166.2650000  98.5690000 110.1270000 166.7030000  98.2470000 108.8090000
 168.2196870  98.3800422 108.7410128 168.8258325  97.4794892 109.6652661
 165.2950000  98.4520000 110.1070000 166.2231500  98.9300745 108.1019185
 166.3944998  97.2188257 108.5959032 168.5357786  99.3929699 109.0120657
 168.5878866  98.1470970 107.7384997 168.3912520  97.6643657 110.5208065
 168.1970000  95.7850000 115.5510000 166.1430000  96.9320000 114.4350000
 166.2539214  98.1651885 115.3299740 165.3788707  95.8468749 115.1797234
 170.7588790  95.2545784 112.8987728 170.1922276  95.3740000 114.3240000
 168.7750000  95.3740000 114.3240000 168.8960000  94.4020000 114.3550000
 168.3711057  94.8251082 115.0512381 167.9773487  95.6344789 116.6097628
 167.2884599  98.5303217 115.2867677 165.9963039  97.8765211 116.3540313
 165.5964407  98.9481457 114.9542770 165.7859448  94.8730218 114.8867150
 164.3235256  95.9012270 114.9050774 165.5085857  96.0075068 116.2536063
 170.3679904  96.0674292 112.2759391 171.8521579  95.3113141 112.9207570
 170.5413253  96.3037113 114.7823684 170.5377374  94.5534533 114.9615830
 168.4706078  96.3055210 114.3240000 169.7460000  92.9490000 114.4960000
 166.2650000  98.5690000 123.2930000 166.7030000  98.2470000 121.9750000
 168.2196870  98.3800422 121.9070128 168.8258325  97.4794892 122.8312661
 165.2950000  98.4520000 123.2730000 166.2231500  98.9300745 121.2679185
 166.3944998  97.2188257 121.7619032 168.5357786  99.3929699 122.1780657
 168.5878866  98.1470970 120.9044997 168.3912520  97.6643657 123.6868065
 168.1970000  95.7850000 128.7160000 166.1430000  96.9320000 127.6000000
 166.2539214  98.1651885 128.4949740 165.3788707  95.8468749 128.3447234
 170.7588790  95.2545784 126.0637728 170.1922276  95.3740000 127.4890000
 168.7750000  95.3740000 127.4890000 168.8960000  94.4020000 127.5200000
 168.3711057  94.8251082 128.2162381 167.9773487  95.6344789 129.7747628
 167.2884599  98.5303217 128.4517677 165.9963039  97.8765211 129.5190313
 165.5964407  98.9481457 128.1192770 165.7859448  94.8730218 128.0517150
 164.3235256  95.9012270 128.0700774 165.5085857  96.0075068 129.4186063
 170.3679904  96.0674292 125.4409391 171.8521579  95.3113141 126.0857570
 170.5413253  96.3037113 127.9473684 170.5377374  94.5534533 128.1265830
 168.4706078  96.3055210 127.4890000 169.7460000  92.9490000 127.6610000
 166.2650000  98.5690000 136.4580000 166.7030000  98.2470000 135.1400000
 168.2196870  98.3800422 135.0720128 168.8258325  97.4794892 135.9962661
 165.2950000  98.4520000 136.4380000 166.2231500  98.9300745 134.4329185
 166.3944998  97.2188257 134.9269032 168.5357786  99.3929699 135.3430657
 168.5878866  98.1470970 134.0694997 168.3912520  97.6643657 136.8518065
 168.1970000  95.7850000 141.8810000 166.1430000  96.9320000 140.7650000
 166.2539214  98.1651885 141.6599740 165.3788707  95.8468749 141.5097234
 170.7588790  95.2545784 139.2287728 170.1922276  95.3740000 140.6540000
 168.7750000  95.3740000 140.6540000 168.8960000  94.4020000 140.6850000
 168.3711057  94.8251082 141.3812381 167.9773487  95.6344789 142.9397628
 167.2884599  98.5303217 141.6167677 165.9963039  97.8765211 142.6840313
 165.5964407  98.9481457 141.2842770 165.7859448  94.8730218 141.2167150
 164.3235256  95.9012270 141.2350774 165.5085857  96.0075068 142.5836063
 170.3679904  96.0674292 138.6059391 171.8521579  95.3113141 139.2507570
 170.5413253  96.3037113 141.1123684 170.5377374  94.5534533 141.2915830
 168.4706078  96.3055210 140.6540000 169.7460000  92.9490000 140.8260000
 166.2650000  98.5690000 149.6230000 166.7030000  98.2470000 148.3050000
 168.2196870  98.3800422 148.2370128 168.8258325  97.4794892 149.1612661
 165.2950000  98.4520000 149.6030000 166.2231500  98.9300745 147.5979185
 166.3944998  97.2188257 148.0919032 168.5357786  99.3929699 148.5080657
 168.5878866  98.1470970 147.2344997 168.3912520  97.6643657 150.0168065
 168.1970000  95.7850000 155.0460000 166.1430000  96.9320000 153.9300000
 166.2539214  98.1651885 154.8249740 165.3788707  95.8468749 154.6747234
 170.7588790  95.2545784 152.3937728 170.1922276  95.3740000 153.8190000
 168.7750000  95.3740000 153.8190000 168.8960000  94.4020000 153.8500000
 168.3711057  94.8251082 154.5462381 167.9773487  95.6344789 156.1047628
 167.2884599  98.5303217 154.7817677 165.9963039  97.8765211 155.8490313
 165.5964407  98.9481457 154.4492770 165.7859448  94.8730218 154.3817150
 164.3235256  95.9012270 154.4000774 165.5085857  96.0075068 155.7486063
 170.3679904  96.0674292 151.7709391 171.8521579  95.3113141 152.4157570
 170.5413253  96.3037113 154.2773684 170.5377374  94.5534533 154.4565830
 168.4706078  96.3055210 153.8190000 169.7460000  92.9490000 153.9910000
 166.2650000  98.5690000 162.7880000 166.7030000  98.2470000 161.4700000
 168.2196870  98.3800422 161.4020128 168.8258325  97.4794892 162.3262661
 165.2950000  98.4520000 162.7680000 166.2231500  98.9300745 160.7629185
 166.3944998  97.2188257 161.2569032 168.5357786  99.3929699 161.6730657
 168.5878866  98.1470970 160.3994997 168.3912520  97.6643657 163.1818065
 168.1970000  95.7850000 168.2110000 166.1430000  96.9320000 167.0950000
 166.2539214  98.1651885 167.9899740 165.3788707  95.8468749 167.8397234
 170.7588790  95.2545784 165.5587728 170.1922276  95.3740000 166.9840000
 168.7750000  95.3740000 166.9840000 168.8960000  94.4020000 167.0150000
 168.3711057  94.8251082 167.7112381 167.9773487  95.6344789 169.2697628
 167.2884599  98.5303217 167.9467677 165.9963039  97.8765211 169.0140313
 165.5964407  98.9481457 167.6142770 165.7859448  94.8730218 167.5467150
 164.3235256  95.9012270 167.5650774 165.5085857  96.0075068 168.9136063
 170.3679904  96.0674292 164.9359391 171.8521579  95.3113141 165.5807570
 170.5413253  96.3037113 167.4423684 170.5377374  94.5534533 167.6215830
 168.4706078  96.3055210 166.9840000 169.7460000  92.9490000 167.1560000
 166.2650000  98.5690000 175.9530000 166.7030000  98.2470000 174.6350000
 168.2196870  98.3800422 174.5670128 168.8258325  97.4794892 175.4912661
 165.2950000  98.4520000 175.9330000 166.2231500  98.9300745 173.9279185
 166.3944998  97.2188257 174.4219032 168.5357786  99.3929699 174.8380657
 168.5878866  98.1470970 173.5644997 168.3912520  97.6643657 176.3468065
 168.1970000  95.7850000 181.3770000 166.1430000  96.9320000 180.2610000
 166.2539214  98.1651885 181.1559740 165.3788707  95.8468749 181.0057234
 170.7588790  95.2545784 178.7247728 170.1922276  95.3740000 180.1500000
 168.7750000  95.3740000 180.1500000 168.8960000  94.4020000 180.1810000
 168.3711057  94.8251082 180.8772381 167.9773487  95.6344789 182.4357628
 167.2884599  98.5303217 181.1127677 165.9963039  97.8765211 182.1800313
 165.5964407  98.9481457 180.7802770 165.7859448  94.8730218 180.7127150
 164.3235256  95.9012270 180.7310774 165.5085857  96.0075068 182.0796063
 170.3679904  96.0674292 178.1019391 171.8521579  95.3113141 178.7467570
 170.5413253  96.3037113 180.6083684 170.5377374  94.5534533 180.7875830
 168.4706078  96.3055210 180.1500000 169.7460000  92.9490000 180.3220000
 166.2650000  98.5690000 189.1190000 166.7030000  98.2470000 187.8010000
 168.2196870  98.3800422 187.7330128 168.8258325  97.4794892 188.6572661
 165.2950000  98.4520000 189.0990000 166.2231500  98.9300745 187.0939185
 166.3944998  97.2188257 187.5879032 168.5357786  99.3929699 188.0040657
 168.5878866  98.1470970 186.7304997 168.3912520  97.6643657 189.5128065
 168.1970000  95.7850000 194.5420000 166.1430000  96.9320000 193.4260000
 166.2539214  98.1651885 194.3209740 165.3788707  95.8468749 194.1707234
 170.7588790  95.2545784 191.8897728 170.1922276  95.3740000 193.3150000
 168.7750000  95.3740000 193.3150000 168.8960000  94.4020000 193.3460000
 168.3711057  94.8251082 194.0422381 167.9773487  95.6344789 195.6007628
 167.2884599  98.5303217 194.2777677 165.9963039  97.8765211 195.3450313
 165.5964407  98.9481457 193.9452770 165.7859448  94.8730218 193.8777150
 164.3235256  95.9012270 193.8960774 165.5085857  96.0075068 195.2446063
 170.3679904  96.0674292 191.2669391 171.8521579  95.3113141 191.9117570
 170.5413253  96.3037113 193.7733684 170.5377374  94.5534533 193.9525830
 168.4706078  96.3055210 193.3150000 169.7460000  92.9490000 193.4870000
 166.2650000  98.5690000 202.2840000 166.7030000  98.2470000 200.9660000
 168.2196870  98.3800422 200.8980128 168.8258325  97.4794892 201.8222661
 165.2950000  98.4520000 202.2640000 166.2231500  98.9300745 200.2589185
 166.3944998  97.2188257 200.7529032 168.5357786  99.3929699 201.1690657
 168.5878866  98.1470970 199.8954997 168.3912520  97.6643657 202.6778065
 168.1970000 103.1020000  76.0550000 166.1430000 104.2490000  74.9390000
 166.2539214 105.4821885  75.8339740 165.3788707 103.1638749  75.6837234
 170.7588790 102.5715784  73.4027728 170.1922276 102.6910000  74.8280000
 168.7750000 102.6910000  74.8280000 168.8960000 101.7190000  74.8590000
 168.3711057 102.1421082  75.5552381 167.9773487 102.9514789  77.1137628
 167.2884599 105.8473217  75.7907677 165.9963039 105.1935211  76.8580313
 165.5964407 106.2651457  75.4582770 165.7859448 102.1900218  75.3907150
 164.3235256 103.2182270  75.4090774 165.5085857 103.3245068  76.7576063
 170.3679904 103.3844292  72.7799391 171.8521579 102.6283141  73.4247570
 170.5413253 103.6207113  75.2863684 170.5377374 101.8704533  75.4655830
 168.4706078 103.6225210  74.8280000 169.7460000 100.2660000  75.0000000
 166.2650000 105.8860000  83.7970000 166.7030000 105.5640000  82.4790000
 168.2196870 105.6970422  82.4110128 168.8258325 104.7964892  83.3352661
 165.2950000 105.7690000  83.7770000 166.2231500 106.2470745  81.7719185
 166.3944998 104.5358257  82.2659032 168.5357786 106.7099699  82.6820657
 168.5878866 105.4640970  81.4084997 168.3912520 104.9813657  84.1908065
 168.1970000 103.1020000  89.2200000 166.1430000 104.2490000  88.1040000
 166.2539214 105.4821885  88.9989740 165.3788707 103.1638749  88.8487234
 170.7588790 102.5715784  86.5677728 170.1922276 102.6910000  87.9930000
 168.7750000 102.6910000  87.9930000 168.8960000 101.7190000  88.0240000
 168.3711057 102.1421082  88.7202381 167.9773487 102.9514789  90.2787628
 167.2884599 105.8473217  88.9557677 165.9963039 105.1935211  90.0230313
 165.5964407 106.2651457  88.6232770 165.7859448 102.1900218  88.5557150
 164.3235256 103.2182270  88.5740774 165.5085857 103.3245068  89.9226063
 170.3679904 103.3844292  85.9449391 171.8521579 102.6283141  86.5897570
 170.5413253 103.6207113  88.4513684 170.5377374 101.8704533  88.6305830
 168.4706078 103.6225210  87.9930000 169.7460000 100.2660000  88.1650000
 166.2650000 105.8860000  96.9620000 166.7030000 105.5640000  95.6440000
 168.2196870 105.6970422  95.5760128 168.8258325 104.7964892  96.5002661
 165.2950000 105.7690000  96.9420000 166.2231500 106.2470745  94.9369185
 166.3944998 104.5358257  95.4309032 168.5357786 106.7099699  95.8470657
 168.5878866 105.4640970  94.5734997 168.3912520 104.9813657  97.3558065
 168.1970000 103.1020000 102.3850000 166.1430000 104.2490000 101.2690000
 166.2539214 105.4821885 102.1639740 165.3788707 103.1638749 102.0137234
 170.7588790 102.5715784  99.7327728 170.1922276 102.6910000 101.1580000
 168.7750000 102.6910000 101.1580000 168.8960000 101.7190000 101.1890000
 168.3711057 102.1421082 101.8852381 167.9773487 102.9514789 103.4437628
 167.2884599 105.8473217 102.1207677 165.9963039 105.1935211 103.1880313
 165.5964407 106.2651457 101.7882770 165.7859448 102.1900218 101.7207150
 164.3235256 103.2182270 101.7390774 165.5085857 103.3245068 103.0876063
 170.3679904 103.3844292  99.1099391 171.8521579 102.6283141  99.7547570
 170.5413253 103.6207113 101.6163684 170.5377374 101.8704533 101.7955830
 168.4706078 103.6225210 101.1580000 169.7460000 100.2660000 101.3300000
 166.2650000 105.8860000 110.1270000 166.7030000 105.5640000 108.8090000
 168.2196870 105.6970422 108.7410128 168.8258325 104.7964892 109.6652661
 165.2950000 105.7690000 110.1070000 166.2231500 106.2470745 108.1019185
 166.3944998 104.5358257 108.5959032 168.5357786 106.7099699 109.0120657
 168.5878866 105.4640970 107.7384997 168.3912520 104.9813657 110.5208065
 168.1970000 103.1020000 115.5510000 166.1430000 104.2490000 114.4350000
 166.2539214 105.4821885 115.3299740 165.3788707 103.1638749 115.1797234
 170.7588790 102.5715784 112.8987728 170.1922276 102.6910000 114.3240000
 168.7750000 102.6910000 114.3240000 168.8960000 101.7190000 114.3550000
 168.3711057 102.1421082 115.0512381 167.9773487 102.9514789 116.6097628
 167.2884599 105.8473217 115.2867677 165.9963039 105.1935211 116.3540313
 165.5964407 106.2651457 114.9542770 165.7859448 102.1900218 114.8867150
 164.3235256 103.2182270 114.9050774 165.5085857 103.3245068 116.2536063
 170.3679904 103.3844292 112.2759391 171.8521579 102.6283141 112.9207570
 170.5413253 103.6207113 114.7823684 170.5377374 101.8704533 114.9615830
 168.4706078 103.6225210 114.3240000 169.7460000 100.2660000 114.4960000
 166.2650000 105.8860000 123.2930000 166.7030000 105.5640000 121.9750000
 168.2196870 105.6970422 121.9070128 168.8258325 104.7964892 122.8312661
 165.2950000 105.7690000 123.2730000 166.2231500 106.2470745 121.2679185
 166.3944998 104.5358257 121.7619032 168.5357786 106.7099699 122.1780657
 168.5878866 105.4640970 120.9044997 168.3912520 104.9813657 123.6868065
 168.1970000 103.1020000 128.7160000 166.1430000 104.2490000 127.6000000
 166.2539214 105.4821885 128.4949740 165.3788707 103.1638749 128.3447234
 170.7588790 102.5715784 126.0637728 170.1922276 102.6910000 127.4890000
 168.7750000 102.6910000 127.4890000 168.8960000 101.7190000 127.5200000
 168.3711057 102.1421082 128.2162381 167.9773487 102.9514789 129.7747628
 167.2884599 105.8473217 128.4517677 165.9963039 105.1935211 129.5190313
 165.5964407 106.2651457 128.1192770 165.7859448 102.1900218 128.0517150
 164.3235256 103.2182270 128.0700774 165.5085857 103.3245068 129.4186063
 170.3679904 103.3844292 125.4409391 171.8521579 102.6283141 126.0857570
 170.5413253 103.6207113 127.9473684 170.5377374 101.8704533 128.1265830
 168.4706078 103.6225210 127.4890000 169.7460000 100.2660000 127.6610000
 166.2650000 105.8860000 136.4580000 166.7030000 105.5640000 135.1400000
 168.2196870 105.6970422 135.0720128 168.8258325 104.7964892 135.9962661
 165.2950000 105.7690000 136.4380000 166.2231500 106.2470745 134.4329185
 166.3944998 104.5358257 134.9269032 168.5357786 106.7099699 135.3430657
 168.5878866 105.4640970 134.0694997 168.3912520 104.9813657 136.8518065
 168.1970000 103.1020000 141.8810000 166.1430000 104.2490000 140.7650000
 166.2539214 105.4821885 141.6599740 165.3788707 103.1638749 141.5097234
 170.7588790 102.5715784 139.2287728 170.1922276 102.6910000 140.6540000
 168.7750000 102.6910000 140.6540000 168.8960000 101.7190000 140.6850000
 168.3711057 102.1421082 141.3812381 167.9773487 102.9514789 142.9397628
 167.2884599 105.8473217 141.6167677 165.9963039 105.1935211 142.6840313
 165.5964407 106.2651457 141.2842770 165.7859448 102.1900218 141.2167150
 164.3235256 103.2182270 141.2350774 165.5085857 103.3245068 142.5836063
 170.3679904 103.3844292 138.6059391 171.8521579 102.6283141 139.2507570
 170.5413253 103.6207113 141.1123684 170.5377374 101.8704533 141.2915830
 168.4706078 103.6225210 140.6540000 169.7460000 100.2660000 140.8260000
 166.2650000 105.8860000 149.6230000 166.7030000 105.5640000 148.3050000
 168.2196870 105.6970422 148.2370128 168.8258325 104.7964892 149.1612661
 165.2950000 105.7690000 149.6030000 166.2231500 106.2470745 147.5979185
 166.3944998 104.5358257 148.0919032 168.5357786 106.7099699 148.5080657
 168.5878866 105.4640970 147.2344997 168.3912520 104.9813657 150.0168065
 168.1970000 103.1020000 155.0460000 166.1430000 104.2490000 153.9300000
 166.2539214 105.4821885 154.8249740 165.3788707 103.1638749 154.6747234
 170.7588790 102.5715784 152.3937728 170.1922276 102.6910000 153.8190000
 168.7750000 102.6910000 153.8190000 168.8960000 101.7190000 153.8500000
 168.3711057 102.1421082 154.5462381 167.9773487 102.9514789 156.1047628
 167.2884599 105.8473217 154.7817677 165.9963039 105.1935211 155.8490313
 165.5964407 106.2651457 154.4492770 165.7859448 102.1900218 154.3817150
 164.3235256 103.2182270 154.4000774 165.5085857 103.3245068 155.7486063
 170.3679904 103.3844292 151.7709391 171.8521579 102.6283141 152.4157570
 170.5413253 103.6207113 154.2773684 170.5377374 101.8704533 154.4565830
 168.4706078 103.6225210 153.8190000 169.7460000 100.2660000 153.9910000
 166.2650000 105.8860000 162.7880000 166.7030000 105.5640000 161.4700000
 168.2196870 105.6970422 161.4020128 168.8258325 104.7964892 162.3262661
 165.2950000 105.7690000 162.7680000 166.2231500 106.2470745 160.7629185
 166.3944998 104.5358257 161.2569032 168.5357786 106.7099699 161.6730657
 168.5878866 105.4640970 160.3994997 168.3912520 104.9813657 163.1818065
 168.1970000 103.1020000 168.2110000 166.1430000 104.2490000 167.0950000
 166.2539214 105.4821885 167.9899740 165.3788707 103.1638749 167.8397234
 170.7588790 102.5715784 165.5587728 170.1922276 102.6910000 166.9840000
 168.7750000 102.6910000 166.9840000 168.8960000 101.7190000 167.0150000
 168.3711057 102.1421082 167.7112381 167.9773487 102.9514789 169.2697628
 167.2884599 105.8473217 167.9467677 165.9963039 105.1935211 169.0140313
 165.5964407 106.2651457 167.6142770 165.7859448 102.1900218 167.5467150
 164.3235256 103.2182270 167.5650774 165.5085857 103.3245068 168.9136063
 170.3679904 103.3844292 164.9359391 171.8521579 102.6283141 165.5807570
 170.5413253 103.6207113 167.4423684 170.5377374 101.8704533 167.6215830
 168.4706078 103.6225210 166.9840000 169.7460000 100.2660000 167.1560000
 166.2650000 105.8860000 175.9530000 166.7030000 105.5640000 174.6350000
 168.2196870 105.6970422 174.5670128 168.8258325 104.7964892 175.4912661
 165.2950000 105.7690000 175.9330000 166.2231500 106.2470745 173.9279185
 166.3944998 104.5358257 174.4219032 168.5357786 106.7099699 174.8380657
 168.5878866 105.4640970 173.5644997 168.3912520 104.9813657 176.3468065
 168.1970000 103.1020000 181.3770000 166.1430000 104.2490000 180.2610000
 166.2539214 105.4821885 181.1559740 165.3788707 103.1638749 181.0057234
 170.7588790 102.5715784 178.7247728 170.1922276 102.6910000 180.1500000
 168.7750000 102.6910000 180.1500000 168.8960000 101.7190000 180.1810000
 168.3711057 102.1421082 180.8772381 167.9773487 102.9514789 182.4357628
 167.2884599 105.8473217 181.1127677 165.9963039 105.1935211 182.1800313
 165.5964407 106.2651457 180.7802770 165.7859448 102.1900218 180.7127150
 164.3235256 103.2182270 180.7310774 165.5085857 103.3245068 182.0796063
 170.3679904 103.3844292 178.1019391 171.8521579 102.6283141 178.7467570
 170.5413253 103.6207113 180.6083684 170.5377374 101.8704533 180.7875830
 168.4706078 103.6225210 180.1500000 169.7460000 100.2660000 180.3220000
 166.2650000 105.8860000 189.1190000 166.7030000 105.5640000 187.8010000
 168.2196870 105.6970422 187.7330128 168.8258325 104.7964892 188.6572661
 165.2950000 105.7690000 189.0990000 166.2231500 106.2470745 187.0939185
 166.3944998 104.5358257 187.5879032 168.5357786 106.7099699 188.0040657
 168.5878866 105.4640970 186.7304997 168.3912520 104.9813657 189.5128065
 168.1970000 103.1020000 194.5420000 166.1430000 104.2490000 193.4260000
 166.2539214 105.4821885 194.3209740 165.3788707 103.1638749 194.1707234
 170.7588790 102.5715784 191.8897728 170.1922276 102.6910000 193.3150000
 168.7750000 102.6910000 193.3150000 168.8960000 101.7190000 193.3460000
 168.3711057 102.1421082 194.0422381 167.9773487 102.9514789 195.6007628
 167.2884599 105.8473217 194.2777677 165.9963039 105.1935211 195.3450313
 165.5964407 106.2651457 193.9452770 165.7859448 102.1900218 193.8777150
 164.3235256 103.2182270 193.8960774 165.5085857 103.3245068 195.2446063
 170.3679904 103.3844292 191.2669391 171.8521579 102.6283141 191.9117570
 170.5413253 103.6207113 193.7733684 170.5377374 101.8704533 193.9525830
 168.4706078 103.6225210 193.3150000 169.7460000 100.2660000 193.4870000
 166.2650000 105.8860000 202.2840000 166.7030000 105.5640000 200.9660000
 168.2196870 105.6970422 200.8980128 168.8258325 104.7964892 201.8222661
 165.2950000 105.7690000 202.2640000 166.2231500 106.2470745 200.2589185
 166.3944998 104.5358257 200.7529032 168.5357786 106.7099699 201.1690657
 168.5878866 105.4640970 199.8954997 168.3912520 104.9813657 202.6778065
 168.1970000 110.4180000  76.0550000 166.1430000 111.5650000  74.9390000
 166.2539214 112.7981885  75.8339740 165.3788707 110.4798749  75.6837234
 170.7588790 109.8875784  73.4027728 170.1922276 110.0070000  74.8280000
 168.7750000 110.0070000  74.8280000 168.8960000 109.0350000  74.8590000
 168.3711057 109.4581082  75.5552381 167.9773487 110.2674789  77.1137628
 167.2884599 113.1633217  75.7907677 165.9963039 112.5095211  76.8580313
 165.5964407 113.5811457  75.4582770 165.7859448 109.5060218  75.3907150
 164.3235256 110.5342270  75.4090774 165.5085857 110.6405068  76.7576063
 170.3679904 110.7004292  72.7799391 171.8521579 109.9443141  73.4247570
 170.5413253 110.9367113  75.2863684 170.5377374 109.1864533  75.4655830
 168.4706078 110.9385210  74.8280000 169.7460000 107.5820000  75.0000000
 166.2650000 113.2020000  83.7970000 166.7030000 112.8800000  82.4790000
 168.2196870 113.0130422  82.4110128 168.8258325 112.1124892  83.3352661
 165.2950000 113.0850000  83.7770000 166.2231500 113.5630745  81.7719185
 166.3944998 111.8518257  82.2659032 168.5357786 114.0259699  82.6820657
 168.5878866 112.7800970  81.4084997 168.3912520 112.2973657  84.1908065
 168.1970000 110.4180000  89.2200000 166.1430000 111.5650000  88.1040000
 166.2539214 112.7981885  88.9989740 165.3788707 110.4798749  88.8487234
 170.7588790 109.8875784  86.5677728 170.1922276 110.0070000  87.9930000
 168.7750000 110.0070000  87.9930000 168.8960000 109.0350000  88.0240000
 168.3711057 109.4581082  88.7202381 167.9773487 110.2674789  90.2787628
 167.2884599 113.1633217  88.9557677 165.9963039 112.5095211  90.0230313
 165.5964407 113.5811457  88.6232770 165.7859448 109.5060218  88.5557150
 164.3235256 110.5342270  88.5740774 165.5085857 110.6405068  89.9226063
 170.3679904 110.7004292  85.9449391 171.8521579 109.9443141  86.5897570
 170.5413253 110.9367113  88.4513684 170.5377374 109.1864533  88.6305830
 168.4706078 110.9385210  87.9930000 169.7460000 107.5820000  88.1650000
 166.2650000 113.2020000  96.9620000 166.7030000 112.8800000  95.6440000
 168.2196870 113.0130422  95.5760128 168.8258325 112.1124892  96.5002661
 165.2950000 113.0850000  96.9420000 166.2231500 113.5630745  94.9369185
 166.3944998 111.8518257  95.4309032 168.5357786 114.0259699  95.8470657
 168.5878866 112.7800970  94.5734997 168.3912520 112.2973657  97.3558065
 168.1970000 110.4180000 102.3850000 166.1430000 111.5650000 101.2690000
 166.2539214 112.7981885 102.1639740 165.3788707 110.4798749 102.0137234
 170.7588790 109.8875784  99.7327728 170.1922276 110.0070000 101.1580000
 168.7750000 110.0070000 101.1580000 168.8960000 109.0350000 101.1890000
 168.3711057 109.4581082 101.8852381 167.9773487 110.2674789 103.4437628
 167.2884599 113.1633217 102.1207677 165.9963039 112.5095211 103.1880313
 165.5964407 113.5811457 101.7882770 165.7859448 109.5060218 101.7207150
 164.3235256 110.5342270 101.7390774 165.5085857 110.6405068 103.0876063
 170.3679904 110.7004292  99.1099391 171.8521579 109.9443141  99.7547570
 170.5413253 110.9367113 101.6163684 170.5377374 109.1864533 101.7955830
 168.4706078 110.9385210 101.1580000 169.7460000 107.5820000 101.3300000
 166.2650000 113.2020000 110.1270000 166.7030000 112.8800000 108.8090000
 168.2196870 113.0130422 108.7410128 168.8258325 112.1124892 109.6652661
 165.2950000 113.0850000 110.1070000 166.2231500 113.5630745 108.1019185
 166.3944998 111.8518257 108.5959032 168.5357786 114.0259699 109.0120657
 168.5878866 112.7800970 107.7384997 168.3912520 112.2973657 110.5208065
 168.1970000 110.4180000 115.5510000 166.1430000 111.5650000 114.4350000
 166.2539214 112.7981885 115.3299740 165.3788707 110.4798749 115.1797234
 170.7588790 109.8875784 112.8987728 170.1922276 110.0070000 114.3240000
 168.7750000 110.0070000 114.3240000 168.8960000 109.0350000 114.3550000
 168.3711057 109.4581082 115.0512381 167.9773487 110.2674789 116.6097628
 167.2884599 113.1633217 115.2867677 165.9963039 112.5095211 116.3540313
 165.5964407 113.5811457 114.9542770 165.7859448 109.5060218 114.8867150
 164.3235256 110.5342270 114.9050774 165.5085857 110.6405068 116.2536063
 170.3679904 110.7004292 112.2759391 171.8521579 109.9443141 112.9207570
 170.5413253 110.9367113 114.7823684 170.5377374 109.1864533 114.9615830
 168.4706078 110.9385210 114.3240000 169.7460000 107.5820000 114.4960000
 166.2650000 113.2020000 123.2930000 166.7030000 112.8800000 121.9750000
 168.2196870 113.0130422 121.9070128 168.8258325 112.1124892 122.8312661
 165.2950000 113.0850000 123.2730000 166.2231500 113.5630745 121.2679185
 166.3944998 111.8518257 121.7619032 168.5357786 114.0259699 122.1780657
 168.5878866 112.7800970 120.9044997 168.3912520 112.2973657 123.6868065
 168.1970000 110.4180000 128.7160000 166.1430000 111.5650000 127.6000000
 166.2539214 112.7981885 128.4949740 165.3788707 110.4798749 128.3447234
 170.7588790 109.8875784 126.0637728 170.1922276 110.0070000 127.4890000
 168.7750000 110.0070000 127.4890000 168.8960000 109.0350000 127.5200000
 168.3711057 109.4581082 128.2162381 167.9773487 110.2674789 129.7747628
 167.2884599 113.1633217 128.4517677 165.9963039 112.5095211 129.5190313
 165.5964407 113.5811457 128.1192770 165.7859448 109.5060218 128.0517150
 164.3235256 110.5342270 128.0700774 165.5085857 110.6405068 129.4186063
 170.3679904 110.7004292 125.4409391 171.8521579 109.9443141 126.0857570
 170.5413253 110.9367113 127.9473684 170.5377374 109.1864533 128.1265830
 168.4706078 110.9385210 127.4890000 169.7460000 107.5820000 127.6610000
 166.2650000 113.2020000 136.4580000 166.7030000 112.8800000 135.1400000
 168.2196870 113.0130422 135.0720128 168.8258325 112.1124892 135.9962661
 165.2950000 113.0850000 136.4380000 166.2231500 113.5630745 134.4329185
 166.3944998 111.8518257 134.9269032 168.5357786 114.0259699 135.3430657
 168.5878866 112.7800970 134.0694997 168.3912520 112.2973657 136.8518065
 168.1970000 110.4180000 141.8810000 166.1430000 111.5650000 140.7650000
 166.2539214 112.7981885 141.6599740 165.3788707 110.4798749 141.5097234
 170.7588790 109.8875784 139.2287728 170.1922276 110.0070000 140.6540000
 168.7750000 110.0070000 140.6540000 168.8960000 109.0350000 140.6850000
 168.3711057 109.4581082 141.3812381 167.9773487 110.2674789 142.9397628
 167.2884599 113.1633217 141.6167677 165.9963039 112.5095211 142.6840313
 165.5964407 113.5811457 141.2842770 165.7859448 109.5060218 141.2167150
 164.3235256 110.5342270 141.2350774 165.5085857 110.6405068 142.5836063
 170.3679904 110.7004292 138.6059391 171.8521579 109.9443141 139.2507570
 170.5413253 110.9367113 141.1123684 170.5377374 109.1864533 141.2915830
 168.4706078 110.9385210 140.6540000 169.7460000 107.5820000 140.8260000
 166.2650000 113.2020000 149.6230000 166.7030000 112.8800000 148.3050000
 168.2196870 113.0130422 148.2370128 168.8258325 112.1124892 149.1612661
 165.2950000 113.0850000 149.6030000 166.2231500 113.5630745 147.5979185
 166.3944998 111.8518257 148.0919032 168.5357786 114.0259699 148.5080657
 168.5878866 112.7800970 147.2344997 168.3912520 112.2973657 150.0168065
 168.1970000 110.4180000 155.0460000 166.1430000 111.5650000 153.9300000
 166.2539214 112.7981885 154.8249740 165.3788707 110.4798749 154.6747234
 170.7588790 109.8875784 152.3937728 170.1922276 110.0070000 153.8190000
 168.7750000 110.0070000 153.8190000 168.8960000 109.0350000 153.8500000
 168.3711057 109.4581082 154.5462381 167.9773487 110.2674789 156.1047628
 167.2884599 113.1633217 154.7817677 165.9963039 112.5095211 155.8490313
 165.5964407 113.5811457 154.4492770 165.7859448 109.5060218 154.3817150
 164.3235256 110.5342270 154.4000774 165.5085857 110.6405068 155.7486063
 170.3679904 110.7004292 151.7709391 171.8521579 109.9443141 152.4157570
 170.5413253 110.9367113 154.2773684 170.5377374 109.1864533 154.4565830
 168.4706078 110.9385210 153.8190000 169.7460000 107.5820000 153.9910000
 166.2650000 113.2020000 162.7880000 166.7030000 112.8800000 161.4700000
 168.2196870 113.0130422 161.4020128 168.8258325 112.1124892 162.3262661
 165.2950000 113.0850000 162.7680000 166.2231500 113.5630745 160.7629185
 166.3944998 111.8518257 161.2569032 168.5357786 114.0259699 161.6730657
 168.5878866 112.7800970 160.3994997 168.3912520 112.2973657 163.1818065
 168.1970000 110.4180000 168.2110000 166.1430000 111.5650000 167.0950000
 166.2539214 112.7981885 167.9899740 165.3788707 110.4798749 167.8397234
 170.7588790 109.8875784 165.5587728 170.1922276 110.0070000 166.9840000
 168.7750000 110.0070000 166.9840000 168.8960000 109.0350000 167.0150000
 168.3711057 109.4581082 167.7112381 167.9773487 110.2674789 169.2697628
 167.2884599 113.1633217 167.9467677 165.9963039 112.5095211 169.0140313
 165.5964407 113.5811457 167.6142770 165.7859448 109.5060218 167.5467150
 164.3235256 110.5342270 167.5650774 165.5085857 110.6405068 168.9136063
 170.3679904 110.7004292 164.9359391 171.8521579 109.9443141 165.5807570
 170.5413253 110.9367113 167.4423684 170.5377374 109.1864533 167.6215830
 168.4706078 110.9385210 166.9840000 169.7460000 107.5820000 167.1560000
 166.2650000 113.2020000 175.9530000 166.7030000 112.8800000 174.6350000
 168.2196870 113.0130422 174.5670128 168.8258325 112.1124892 175.4912661
 165.2950000 113.0850000 175.9330000 166.2231500 113.5630745 173.9279185
 166.3944998 111.8518257 174.4219032 168.5357786 114.0259699 174.8380657
 168.5878866 112.7800970 173.5644997 168.3912520 112.2973657 176.3468065
 168.1970000 110.4180000 181.3770000 166.1430000 111.5650000 180.2610000
 166.2539214 112.7981885 181.1559740 165.3788707 110.4798749 181.0057234
 170.7588790 109.8875784 178.7247728 170.1922276 110.0070000 180.1500000
 168.7750000 110.0070000 180.1500000 168.8960000 109.0350000 180.1810000
 168.3711057 109.4581082 180.8772381 167.9773487 110.2674789 182.4357628
 167.2884599 113.1633217 181.1127677 165.9963039 112.5095211 182.1800313
 165.5964407 113.5811457 180.7802770 165.7859448 109.5060218 180.7127150
 164.3235256 110.5342270 180.7310774 165.5085857 110.6405068 182.0796063
 170.3679904 110.7004292 178.1019391 171.8521579 109.9443141 178.7467570
 170.5413253 110.9367113 180.6083684 170.5377374 109.1864533 180.7875830
 168.4706078 110.9385210 180.1500000 169.7460000 107.5820000 180.3220000
 166.2650000 113.2020000 189.1190000 166.7030000 112.8800000 187.8010000
 168.2196870 113.0130422 187.7330128 168.8258325 112.1124892 188.6572661
 165.2950000 113.0850000 189.0990000 166.2231500 113.5630745 187.0939185
 166.3944998 111.8518257 187.5879032 168.5357786 114.0259699 188.0040657
 168.5878866 112.7800970 186.7304997 168.3912520 112.2973657 189.5128065
 168.1970000 110.4180000 194.5420000 166.1430000 111.5650000 193.4260000
 166.2539214 112.7981885 194.3209740 165.3788707 110.4798749 194.1707234
 170.7588790 109.8875784 191.8897728 170.1922276 110.0070000 193.3150000
 168.7750000 110.0070000 193.3150000 168.8960000 109.0350000 193.3460000
 168.3711057 109.4581082 194.0422381 167.9773487 110.2674789 195.6007628
 167.2884599 113.1633217 194.2777677 165.9963039 112.5095211 195.3450313
 165.5964407 113.5811457 193.9452770 165.7859448 109.5060218 193.8777150
 164.3235256 110.5342270 193.8960774 165.5085857 110.6405068 195.2446063
 170.3679904 110.7004292 191.2669391 171.8521579 109.9443141 191.9117570
 170.5413253 110.9367113 193.7733684 170.5377374 109.1864533 193.9525830
 168.4706078 110.9385210 193.3150000 169.7460000 107.5820000 193.4870000
 166.2650000 113.2020000 202.2840000 166.7030000 112.8800000 200.9660000
 168.2196870 113.0130422 200.8980128 168.8258325 112.1124892 201.8222661
 165.2950000 113.0850000 202.2640000 166.2231500 113.5630745 200.2589185
 166.3944998 111.8518257 200.7529032 168.5357786 114.0259699 201.1690657
 168.5878866 112.7800970 199.8954997 168.3912520 112.2973657 202.6778065
 168.1970000 117.7340000  76.0550000 166.1430000 118.8810000  74.9390000
 166.2539214 120.1141885  75.8339740 165.3788707 117.7958749  75.6837234
 170.7588790 117.2035784  73.4027728 170.1922276 117.3230000  74.8280000
 168.7750000 117.3230000  74.8280000 168.8960000 116.3510000  74.8590000
 168.3711057 116.7741082  75.5552381 167.9773487 117.5834789  77.1137628
 167.2884599 120.4793217  75.7907677 165.9963039 119.8255211  76.8580313
 165.5964407 120.8971457  75.4582770 165.7859448 116.8220218  75.3907150
 164.3235256 117.8502270  75.4090774 165.5085857 117.9565068  76.7576063
 170.3679904 118.0164292  72.7799391 171.8521579 117.2603141  73.4247570
 170.5413253 118.2527113  75.2863684 170.5377374 116.5024533  75.4655830
 168.4706078 118.2545210  74.8280000 169.7460000 114.8980000  75.0000000
 166.2650000 120.5180000  83.7970000 166.7030000 120.1960000  82.4790000
 168.2196870 120.3290422  82.4110128 168.8258325 119.4284892  83.3352661
 165.2950000 120.4010000  83.7770000 166.2231500 120.8790745  81.7719185
 166.3944998 119.1678257  82.2659032 168.5357786 121.3419699  82.6820657
 168.5878866 120.0960970  81.4084997 168.3912520 119.6133657  84.1908065
 168.1970000 117.7340000  89.2200000 166.1430000 118.8810000  88.1040000
 166.2539214 120.1141885  88.9989740 165.3788707 117.7958749  88.8487234
 170.7588790 117.2035784  86.5677728 170.1922276 117.3230000  87.9930000
 168.7750000 117.3230000  87.9930000 168.8960000 116.3510000  88.0240000
 168.3711057 116.7741082  88.7202381 167.9773487 117.5834789  90.2787628
 167.2884599 120.4793217  88.9557677 165.9963039 119.8255211  90.0230313
 165.5964407 120.8971457  88.6232770 165.7859448 116.8220218  88.5557150
 164.3235256 117.8502270  88.5740774 165.5085857 117.9565068  89.9226063
 170.3679904 118.0164292  85.9449391 171.8521579 117.2603141  86.5897570
 170.5413253 118.2527113  88.4513684 170.5377374 116.5024533  88.6305830
 168.4706078 118.2545210  87.9930000 169.7460000 114.8980000  88.1650000
 166.2650000 120.5180000  96.9620000 166.7030000 120.1960000  95.6440000
 168.2196870 120.3290422  95.5760128 168.8258325 119.4284892  96.5002661
 165.2950000 120.4010000  96.9420000 166.2231500 120.8790745  94.9369185
 166.3944998 119.1678257  95.4309032 168.5357786 121.3419699  95.8470657
 168.5878866 120.0960970  94.5734997 168.3912520 119.6133657  97.3558065
 168.1970000 117.7340000 102.3850000 166.1430000 118.8810000 101.2690000
 166.2539214 120.1141885 102.1639740 165.3788707 117.7958749 102.0137234
 170.7588790 117.2035784  99.7327728 170.1922276 117.3230000 101.1580000
 168.7750000 117.3230000 101.1580000 168.8960000 116.3510000 101.1890000
 168.3711057 116.7741082 101.8852381 167.9773487 117.5834789 103.4437628
 167.2884599 120.4793217 102.1207677 165.9963039 119.8255211 103.1880313
 165.5964407 120.8971457 101.7882770 165.7859448 116.8220218 101.7207150
 164.3235256 117.8502270 101.7390774 165.5085857 117.9565068 103.0876063
 170.3679904 118.0164292  99.1099391 171.8521579 117.2603141  99.7547570
 170.5413253 118.2527113 101.6163684 170.5377374 116.5024533 101.7955830
 168.4706078 118.2545210 101.1580000 169.7460000 114.8980000 101.3300000
 166.2650000 120.5180000 110.1270000 166.7030000 120.1960000 108.8090000
 168.2196870 120.3290422 108.7410128 168.8258325 119.4284892 109.6652661
 165.2950000 120.4010000 110.1070000 166.2231500 120.8790745 108.1019185
 166.3944998 119.1678257 108.5959032 168.5357786 121.3419699 109.0120657
 168.5878866 120.0960970 107.7384997 168.3912520 119.6133657 110.5208065
 168.1970000 117.7340000 115.5510000 166.1430000 118.8810000 114.4350000
 166.2539214 120.1141885 115.3299740 165.3788707 117.7958749 115.1797234
 170.7588790 117.2035784 112.8987728 170.1922276 117.3230000 114.3240000
 168.7750000 117.3230000 114.3240000 168.8960000 116.3510000 114.3550000
 168.3711057 116.7741082 115.0512381 167.9773487 117.5834789 116.6097628
 167.2884599 120.4793217 115.2867677 165.9963039 119.8255211 116.3540313
 165.5964407 120.8971457 114.9542770 165.7859448 116.8220218 114.8867150
 164.3235256 117.8502270 114.9050774 165.5085857 117.9565068 116.2536063
 170.3679904 118.0164292 112.2759391 171.8521579 117.2603141 112.9207570
 170.5413253 118.2527113 114.7823684 170.5377374 116.5024533 114.9615830
 168.4706078 118.2545210 114.3240000 169.7460000 114.8980000 114.4960000
 166.2650000 120.5180000 123.2930000 166.7030000 120.1960000 121.9750000
 168.2196870 120.3290422 121.9070128 168.8258325 119.4284892 122.8312661
 165.2950000 120.4010000 123.2730000 166.2231500 120.8790745 121.2679185
 166.3944998 119.1678257 121.7619032 168.5357786 121.3419699 122.1780657
 168.5878866 120.0960970 120.9044997 168.3912520 119.6133657 123.6868065
 168.1970000 117.7340000 128.7160000 166.1430000 118.8810000 127.6000000
 166.2539214 120.1141885 128.4949740 165.3788707 117.7958749 128.3447234
 170.7588790 117.2035784 126.0637728 170.1922276 117.3230000 127.4890000
 168.7750000 117.3230000 127.4890000 168.8960000 116.3510000 127.5200000
 168.3711057 116.7741082 128.2162381 167.9773487 117.5834789 129.7747628
 167.2884599 120.4793217 128.4517677 165.9963039 119.8255211 129.5190313
 165.5964407 120.8971457 128.1192770 165.7859448 116.8220218 128.0517150
 164.3235256 117.8502270 128.0700774 165.5085857 117.9565068 129.4186063
 170.3679904 118.0164292 125.4409391 171.8521579 117.2603141 126.0857570
 170.5413253 118.2527113 127.9473684 170.5377374 116.5024533 128.1265830
 168.4706078 118.2545210 127.4890000 169.7460000 114.8980000 127.6610000
 166.2650000 120.5180000 136.4580000 166.7030000 120.1960000 135.1400000
 168.2196870 120.3290422 135.0720128 168.8258325 119.4284892 135.9962661
 165.2950000 120.4010000 136.4380000 166.2231500 120.8790745 134.4329185
 166.3944998 119.1678257 134.9269032 168.5357786 121.3419699 135.3430657
 168.5878866 120.0960970 134.0694997 168.3912520 119.6133657 136.8518065
 168.1970000 117.7340000 141.8810000 166.1430000 118.8810000 140.7650000
 166.2539214 120.1141885 141.6599740 165.3788707 117.7958749 141.5097234
 170.7588790 117.2035784 139.2287728 170.1922276 117.3230000 140.6540000
 168.7750000 117.3230000 140.6540000 168.8960000 116.3510000 140.6850000
 168.3711057 116.7741082 141.3812381 167.9773487 117.5834789 142.9397628
 167.2884599 120.4793217 141.6167677 165.9963039 119.8255211 142.6840313
 165.5964407 120.8971457 141.2842770 165.7859448 116.8220218 141.2167150
 164.3235256 117.8502270 141.2350774 165.5085857 117.9565068 142.5836063
 170.3679904 118.0164292 138.6059391 171.8521579 117.2603141 139.2507570
 170.5413253 118.2527113 141.1123684 170.5377374 116.5024533 141.2915830
 168.4706078 118.2545210 140.6540000 169.7460000 114.8980000 140.8260000
 166.2650000 120.5180000 149.6230000 166.7030000 120.1960000 148.3050000
 168.2196870 120.3290422 148.2370128 168.8258325 119.4284892 149.1612661
 165.2950000 120.4010000 149.6030000 166.2231500 120.8790745 147.5979185
 166.3944998 119.1678257 148.0919032 168.5357786 121.3419699 148.5080657
 168.5878866 120.0960970 147.2344997 168.3912520 119.6133657 150.0168065
 168.1970000 117.7340000 155.0460000 166.1430000 118.8810000 153.9300000
 166.2539214 120.1141885 154.8249740 165.3788707 117.7958749 154.6747234
 170.7588790 117.2035784 152.3937728 170.1922276 117.3230000 153.8190000
 168.7750000 117.3230000 153.8190000 168.8960000 116.3510000 153.8500000
 168.3711057 116.7741082 154.5462381 167.9773487 117.5834789 156.1047628
 167.2884599 120.4793217 154.7817677 165.9963039 119.8255211 155.8490313
 165.5964407 120.8971457 154.4492770 165.7859448 116.8220218 154.3817150
 164.3235256 117.8502270 154.4000774 165.5085857 117.9565068 155.7486063
 170.3679904 118.0164292 151.7709391 171.8521579 117.2603141 152.4157570
 170.5413253 118.2527113 154.2773684 170.5377374 116.5024533 154.4565830
 168.4706078 118.2545210 153.8190000 169.7460000 114.8980000 153.9910000
 166.2650000 120.5180000 162.7880000 166.7030000 120.1960000 161.4700000
 168.2196870 120.3290422 161.4020128 168.8258325 119.4284892 162.3262661
 165.2950000 120.4010000 162.7680000 166.2231500 120.8790745 160.7629185
 166.3944998 119.1678257 161.2569032 168.5357786 121.3419699 161.6730657
 168.5878866 120.0960970 160.3994997 168.3912520 119.6133657 163.1818065
 168.1970000 117.7340000 168.2110000 166.1430000 118.8810000 167.0950000
 166.2539214 120.1141885 167.9899740 165.3788707 117.7958749 167.8397234
 170.7588790 117.2035784 165.5587728 170.1922276 117.3230000 166.9840000
 168.7750000 117.3230000 166.9840000 168.8960000 116.3510000 167.0150000
 168.3711057 116.7741082 167.7112381 167.9773487 117.5834789 169.2697628
 167.2884599 120.4793217 167.9467677 165.9963039 119.8255211 169.0140313
 165.5964407 120.8971457 167.6142770 165.7859448 116.8220218 167.5467150
 164.3235256 117.8502270 167.5650774 165.5085857 117.9565068 168.9136063
 170.3679904 118.0164292 164.9359391 171.8521579 117.2603141 165.5807570
 170.5413253 118.2527113 167.4423684 170.5377374 116.5024533 167.6215830
 168.4706078 118.2545210 166.9840000 169.7460000 114.8980000 167.1560000
 166.2650000 120.5180000 175.9530000 166.7030000 120.1960000 174.6350000
 168.2196870 120.3290422 174.5670128 168.8258325 119.4284892 175.4912661
 165.2950000 120.4010000 175.9330000 166.2231500 120.8790745 173.9279185
 166.3944998 119.1678257 174.4219032 168.5357786 121.3419699 174.8380657
 168.5878866 120.0960970 173.5644997 168.3912520 119.6133657 176.3468065
 168.1970000 117.7340000 181.3770000 166.1430000 118.8810000 180.2610000
 166.2539214 120.1141885 181.1559740 165.3788707 117.7958749 181.0057234
 170.7588790 117.2035784 178.7247728 170.1922276 117.3230000 180.1500000
 168.7750000 117.3230000 180.1500000 168.8960000 116.3510000 180.1810000
 168.3711057 116.7741082 180.8772381 167.9773487 117.5834789 182.4357628
 167.2884599 120.4793217 181.1127677 165.9963039 119.8255211 182.1800313
 165.5964407 120.8971457 180.7802770 165.7859448 116.8220218 180.7127150
 164.3235256 117.8502270 180.7310774 165.5085857 117.9565068 182.0796063
 170.3679904 118.0164292 178.1019391 171.8521579 117.2603141 178.7467570
 170.5413253 118.2527113 180.6083684 170.5377374 116.5024533 180.7875830
 168.4706078 118.2545210 180.1500000 169.7460000 114.8980000 180.3220000
 166.2650000 120.5180000 189.1190000 166.7030000 120.1960000 187.8010000
 168.2196870 120.3290422 187.7330128 168.8258325 119.4284892 188.6572661
 165.2950000 120.4010000 189.0990000 166.2231500 120.8790745 187.0939185
 166.3944998 119.1678257 187.5879032 168.5357786 121.3419699 188.0040657
 168.5878866 120.0960970 186.7304997 168.3912520 119.6133657 189.5128065
 168.1970000 117.7340000 194.5420000 166.1430000 118.8810000 193.4260000
 166.2539214 120.1141885 194.3209740 165.3788707 117.7958749 194.1707234
 170.7588790 117.2035784 191.8897728 170.1922276 117.3230000 193.3150000
 168.7750000 117.3230000 193.3150000 168.8960000 116.3510000 193.3460000
 168.3711057 116.7741082 194.0422381 167.9773487 117.5834789 195.6007628
 167.2884599 120.4793217 194.2777677 165.9963039 119.8255211 195.3450313
 165.5964407 120.8971457 193.9452770 165.7859448 116.8220218 193.8777150
 164.3235256 117.8502270 193.8960774 165.5085857 117.9565068 195.2446063
 170.3679904 118.0164292 191.2669391 171.8521579 117.2603141 191.9117570
 170.5413253 118.2527113 193.7733684 170.5377374 116.5024533 193.9525830
 168.4706078 118.2545210 193.3150000 169.7460000 114.8980000 193.4870000
 166.2650000 120.5180000 202.2840000 166.7030000 120.1960000 200.9660000
 168.2196870 120.3290422 200.8980128 168.8258325 119.4284892 201.8222661
 165.2950000 120.4010000 202.2640000 166.2231500 120.8790745 200.2589185
 166.3944998 119.1678257 200.7529032 168.5357786 121.3419699 201.1690657
 168.5878866 120.0960970 199.8954997 168.3912520 119.6133657 202.6778065
 168.1970000 125.0510000  76.0550000 166.1430000 126.1980000  74.9390000
 166.2539214 127.4311885  75.8339740 165.3788707 125.1128749  75.6837234
 170.7588790 124.5205784  73.4027728 170.1922276 124.6400000  74.8280000
 168.7750000 124.6400000  74.8280000 168.8960000 123.6680000  74.8590000
 168.3711057 124.0911082  75.5552381 167.9773487 124.9004789  77.1137628
 167.2884599 127.7963217  75.7907677 165.9963039 127.1425211  76.8580313
 165.5964407 128.2141457  75.4582770 165.7859448 124.1390218  75.3907150
 164.3235256 125.1672270  75.4090774 165.5085857 125.2735068  76.7576063
 170.3679904 125.3334292  72.7799391 171.8521579 124.5773141  73.4247570
 170.5413253 125.5697113  75.2863684 170.5377374 123.8194533  75.4655830
 168.4706078 125.5715210  74.8280000 169.7460000 122.2150000  75.0000000
 166.2650000 127.8350000  83.7970000 166.7030000 127.5130000  82.4790000
 168.2196870 127.6460422  82.4110128 168.8258325 126.7454892  83.3352661
 165.2950000 127.7180000  83.7770000 166.2231500 128.1960745  81.7719185
 166.3944998 126.4848257  82.2659032 168.5357786 128.6589699  82.6820657
 168.5878866 127.4130970  81.4084997 168.3912520 126.9303657  84.1908065
 168.1970000 125.0510000  89.2200000 166.1430000 126.1980000  88.1040000
 166.2539214 127.4311885  88.9989740 165.3788707 125.1128749  88.8487234
 170.7588790 124.5205784  86.5677728 170.1922276 124.6400000  87.9930000
 168.7750000 124.6400000  87.9930000 168.8960000 123.6680000  88.0240000
 168.3711057 124.0911082  88.7202381 167.9773487 124.9004789  90.2787628
 167.2884599 127.7963217  88.9557677 165.9963039 127.1425211  90.0230313
 165.5964407 128.2141457  88.6232770 165.7859448 124.1390218  88.5557150
 164.3235256 125.1672270  88.5740774 165.5085857 125.2735068  89.9226063
 170.3679904 125.3334292  85.9449391 171.8521579 124.5773141  86.5897570
 170.5413253 125.5697113  88.4513684 170.5377374 123.8194533  88.6305830
 168.4706078 125.5715210  87.9930000 169.7460000 122.2150000  88.1650000
 166.2650000 127.8350000  96.9620000 166.7030000 127.5130000  95.6440000
 168.2196870 127.6460422  95.5760128 168.8258325 126.7454892  96.5002661
 165.2950000 127.7180000  96.9420000 166.2231500 128.1960745  94.9369185
 166.3944998 126.4848257  95.4309032 168.5357786 128.6589699  95.8470657
 168.5878866 127.4130970  94.5734997 168.3912520 126.9303657  97.3558065
 168.1970000 125.0510000 102.3850000 166.1430000 126.1980000 101.2690000
 166.2539214 127.4311885 102.1639740 165.3788707 125.1128749 102.0137234
 170.7588790 124.5205784  99.7327728 170.1922276 124.6400000 101.1580000
 168.7750000 124.6400000 101.1580000 168.8960000 123.6680000 101.1890000
 168.3711057 124.0911082 101.8852381 167.9773487 124.9004789 103.4437628
 167.2884599 127.7963217 102.1207677 165.9963039 127.1425211 103.1880313
 165.5964407 128.2141457 101.7882770 165.7859448 124.1390218 101.7207150
 164.3235256 125.1672270 101.7390774 165.5085857 125.2735068 103.0876063
 170.3679904 125.3334292  99.1099391 171.8521579 124.5773141  99.7547570
 170.5413253 125.5697113 101.6163684 170.5377374 123.8194533 101.7955830
 168.4706078 125.5715210 101.1580000 169.7460000 122.2150000 101.3300000
 166.2650000 127.8350000 110.1270000 166.7030000 127.5130000 108.8090000
 168.2196870 127.6460422 108.7410128 168.8258325 126.7454892 109.6652661
 165.2950000 127.7180000 110.1070000 166.2231500 128.1960745 108.1019185
 166.3944998 126.4848257 108.5959032 168.5357786 128.6589699 109.0120657
 168.5878866 127.4130970 107.7384997 168.3912520 126.9303657 110.5208065
 168.1970000 125.0510000 115.5510000 166.1430000 126.1980000 114.4350000
 166.2539214 127.4311885 115.3299740 165.3788707 125.1128749 115.1797234
 170.7588790 124.5205784 112.8987728 170.1922276 124.6400000 114.3240000
 168.7750000 124.6400000 114.3240000 168.8960000 123.6680000 114.3550000
 168.3711057 124.0911082 115.0512381 167.9773487 124.9004789 116.6097628
 167.2884599 127.7963217 115.2867677 165.9963039 127.1425211 116.3540313
 165.5964407 128.2141457 114.9542770 165.7859448 124.1390218 114.8867150
 164.3235256 125.1672270 114.9050774 165.5085857 125.2735068 116.2536063
 170.3679904 125.3334292 112.2759391 171.8521579 124.5773141 112.9207570
 170.5413253 125.5697113 114.7823684 170.5377374 123.8194533 114.9615830
 168.4706078 125.5715210 114.3240000 169.7460000 122.2150000 114.4960000
 166.2650000 127.8350000 123.2930000 166.7030000 127.5130000 121.9750000
 168.2196870 127.6460422 121.9070128 168.8258325 126.7454892 122.8312661
 165.2950000 127.7180000 123.2730000 166.2231500 128.1960745 121.2679185
 166.3944998 126.4848257 121.7619032 168.5357786 128.6589699 122.1780657
 168.5878866 127.4130970 120.9044997 168.3912520 126.9303657 123.6868065
 168.1970000 125.0510000 128.7160000 166.1430000 126.1980000 127.6000000
 166.2539214 127.4311885 128.4949740 165.3788707 125.1128749 128.3447234
 170.7588790 124.5205784 126.0637728 170.1922276 124.6400000 127.4890000
 168.7750000 124.6400000 127.4890000 168.8960000 123.6680000 127.5200000
 168.3711057 124.0911082 128.2162381 167.9773487 124.9004789 129.7747628
 167.2884599 127.7963217 128.4517677 165.9963039 127.1425211 129.5190313
 165.5964407 128.2141457 128.1192770 165.7859448 124.1390218 128.0517150
 164.3235256 125.1672270 128.0700774 165.5085857 125.2735068 129.4186063
 170.3679904 125.3334292 125.4409391 171.8521579 124.5773141 126.0857570
 170.5413253 125.5697113 127.9473684 170.5377374 123.8194533 128.1265830
 168.4706078 125.5715210 127.4890000 169.7460000 122.2150000 127.6610000
 166.2650000 127.8350000 136.4580000 166.7030000 127.5130000 135.1400000
 168.2196870 127.6460422 135.0720128 168.8258325 126.7454892 135.9962661
 165.2950000 127.7180000 136.4380000 166.2231500 128.1960745 134.4329185
 166.3944998 126.4848257 134.9269032 168.5357786 128.6589699 135.3430657
 168.5878866 127.4130970 134.0694997 168.3912520 126.9303657 136.8518065
 168.1970000 125.0510000 141.8810000 166.1430000 126.1980000 140.7650000
 166.2539214 127.4311885 141.6599740 165.3788707 125.1128749 141.5097234
 170.7588790 124.5205784 139.2287728 170.1922276 124.6400000 140.6540000
 168.7750000 124.6400000 140.6540000 168.8960000 123.6680000 140.6850000
 168.3711057 124.0911082 141.3812381 167.9773487 124.9004789 142.9397628
 167.2884599 127.7963217 141.6167677 165.9963039 127.1425211 142.6840313
 165.5964407 128.2141457 141.2842770 165.7859448 124.1390218 141.2167150
 164.3235256 125.1672270 141.2350774 165.5085857 125.2735068 142.5836063
 170.3679904 125.3334292 138.6059391 171.8521579 124.5773141 139.2507570
 170.5413253 125.5697113 141.1123684 170.5377374 123.8194533 141.2915830
 168.4706078 125.5715210 140.6540000 169.7460000 122.2150000 140.8260000
 166.2650000 127.8350000 149.6230000 166.7030000 127.5130000 148.3050000
 168.2196870 127.6460422 148.2370128 168.8258325 126.7454892 149.1612661
 165.2950000 127.7180000 149.6030000 166.2231500 128.1960745 147.5979185
 166.3944998 126.4848257 148.0919032 168.5357786 128.6589699 148.5080657
 168.5878866 127.4130970 147.2344997 168.3912520 126.9303657 150.0168065
 168.1970000 125.0510000 155.0460000 166.1430000 126.1980000 153.9300000
 166.2539214 127.4311885 154.8249740 165.3788707 125.1128749 154.6747234
 170.7588790 124.5205784 152.3937728 170.1922276 124.6400000 153.8190000
 168.7750000 124.6400000 153.8190000 168.8960000 123.6680000 153.8500000
 168.3711057 124.0911082 154.5462381 167.9773487 124.9004789 156.1047628
 167.2884599 127.7963217 154.7817677 165.9963039 127.1425211 155.8490313
 165.5964407 128.2141457 154.4492770 165.7859448 124.1390218 154.3817150
 164.3235256 125.1672270 154.4000774 165.5085857 125.2735068 155.7486063
 170.3679904 125.3334292 151.7709391 171.8521579 124.5773141 152.4157570
 170.5413253 125.5697113 154.2773684 170.5377374 123.8194533 154.4565830
 168.4706078 125.5715210 153.8190000 169.7460000 122.2150000 153.9910000
 166.2650000 127.8350000 162.7880000 166.7030000 127.5130000 161.4700000
 168.2196870 127.6460422 161.4020128 168.8258325 126.7454892 162.3262661
 165.2950000 127.7180000 162.7680000 166.2231500 128.1960745 160.7629185
 166.3944998 126.4848257 161.2569032 168.5357786 128.6589699 161.6730657
 168.5878866 127.4130970 160.3994997 168.3912520 126.9303657 163.1818065
 168.1970000 125.0510000 168.2110000 166.1430000 126.1980000 167.0950000
 166.2539214 127.4311885 167.9899740 165.3788707 125.1128749 167.8397234
 170.7588790 124.5205784 165.5587728 170.1922276 124.6400000 166.9840000
 168.7750000 124.6400000 166.9840000 168.8960000 123.6680000 167.0150000
 168.3711057 124.0911082 167.7112381 167.9773487 124.9004789 169.2697628
 167.2884599 127.7963217 167.9467677 165.9963039 127.1425211 169.0140313
 165.5964407 128.2141457 167.6142770 165.7859448 124.1390218 167.5467150
 164.3235256 125.1672270 167.5650774 165.5085857 125.2735068 168.9136063
 170.3679904 125.3334292 164.9359391 171.8521579 124.5773141 165.5807570
 170.5413253 125.5697113 167.4423684 170.5377374 123.8194533 167.6215830
 168.4706078 125.5715210 166.9840000 169.7460000 122.2150000 167.1560000
 166.2650000 127.8350000 175.9530000 166.7030000 127.5130000 174.6350000
 168.2196870 127.6460422 174.5670128 168.8258325 126.7454892 175.4912661
 165.2950000 127.7180000 175.9330000 166.2231500 128.1960745 173.9279185
 166.3944998 126.4848257 174.4219032 168.5357786 128.6589699 174.8380657
 168.5878866 127.4130970 173.5644997 168.3912520 126.9303657 176.3468065
 168.1970000 125.0510000 181.3770000 166.1430000 126.1980000 180.2610000
 166.2539214 127.4311885 181.1559740 165.3788707 125.1128749 181.0057234
 170.7588790 124.5205784 178.7247728 170.1922276 124.6400000 180.1500000
 168.7750000 124.6400000 180.1500000 168.8960000 123.6680000 180.1810000
 168.3711057 124.0911082 180.8772381 167.9773487 124.9004789 182.4357628
 167.2884599 127.7963217 181.1127677 165.9963039 127.1425211 182.1800313
 165.5964407 128.2141457 180.7802770 165.7859448 124.1390218 180.7127150
 164.3235256 125.1672270 180.7310774 165.5085857 125.2735068 182.0796063
 170.3679904 125.3334292 178.1019391 171.8521579 124.5773141 178.7467570
 170.5413253 125.5697113 180.6083684 170.5377374 123.8194533 180.7875830
 168.4706078 125.5715210 180.1500000 169.7460000 122.2150000 180.3220000
 166.2650000 127.8350000 189.1190000 166.7030000 127.5130000 187.8010000
 168.2196870 127.6460422 187.7330128 168.8258325 126.7454892 188.6572661
 165.2950000 127.7180000 189.0990000 166.2231500 128.1960745 187.0939185
 166.3944998 126.4848257 187.5879032 168.5357786 128.6589699 188.0040657
 168.5878866 127.4130970 186.7304997 168.3912520 126.9303657 189.5128065
 168.1970000 125.0510000 194.5420000 166.1430000 126.1980000 193.4260000
 166.2539214 127.4311885 194.3209740 165.3788707 125.1128749 194.1707234
 170.7588790 124.5205784 191.8897728 170.1922276 124.6400000 193.3150000
 168.7750000 124.6400000 193.3150000 168.8960000 123.6680000 193.3460000
 168.3711057 124.0911082 194.0422381 167.9773487 124.9004789 195.6007628
 167.2884599 127.7963217 194.2777677 165.9963039 127.1425211 195.3450313
 165.5964407 128.2141457 193.9452770 165.7859448 124.1390218 193.8777150
 164.3235256 125.1672270 193.8960774 165.5085857 125.2735068 195.2446063
 170.3679904 125.3334292 191.2669391 171.8521579 124.5773141 191.9117570
 170.5413253 125.5697113 193.7733684 170.5377374 123.8194533 193.9525830
 168.4706078 125.5715210 193.3150000 169.7460000 122.2150000 193.4870000
 166.2650000 127.8350000 202.2840000 166.7030000 127.5130000 200.9660000
 168.2196870 127.6460422 200.8980128 168.8258325 126.7454892 201.8222661
 165.2950000 127.7180000 202.2640000 166.2231500 128.1960745 200.2589185
 166.3944998 126.4848257 200.7529032 168.5357786 128.6589699 201.1690657
 168.5878866 127.4130970 199.8954997 168.3912520 126.9303657 202.6778065
 168.1970000 132.3670000  76.0550000 166.1430000 133.5140000  74.9390000
 166.2539214 134.7471885  75.8339740 165.3788707 132.4288749  75.6837234
 170.7588790 131.8365784  73.4027728 170.1922276 131.9560000  74.8280000
 168.7750000 131.9560000  74.8280000 168.8960000 130.9840000  74.8590000
 168.3711057 131.4071082  75.5552381 167.9773487 132.2164789  77.1137628
 167.2884599 135.1123217  75.7907677 165.9963039 134.4585211  76.8580313
 165.5964407 135.5301457  75.4582770 165.7859448 131.4550218  75.3907150
 164.3235256 132.4832270  75.4090774 165.5085857 132.5895068  76.7576063
 170.3679904 132.6494292  72.7799391 171.8521579 131.8933141  73.4247570
 170.5413253 132.8857113  75.2863684 170.5377374 131.1354533  75.4655830
 168.4706078 132.8875210  74.8280000 169.7460000 129.5310000  75.0000000
 166.2650000 135.1510000  83.7970000 166.7030000 134.8290000  82.4790000
 168.2196870 134.9620422  82.4110128 168.8258325 134.0614892  83.3352661
 165.2950000 135.0340000  83.7770000 166.2231500 135.5120745  81.7719185
 166.3944998 133.8008257  82.2659032 168.5357786 135.9749699  82.6820657
 168.5878866 134.7290970  81.4084997 168.3912520 134.2463657  84.1908065
 168.1970000 132.3670000  89.2200000 166.1430000 133.5140000  88.1040000
 166.2539214 134.7471885  88.9989740 165.3788707 132.4288749  88.8487234
 170.7588790 131.8365784  86.5677728 170.1922276 131.9560000  87.9930000
 168.7750000 131.9560000  87.9930000 168.8960000 130.9840000  88.0240000
 168.3711057 131.4071082  88.7202381 167.9773487 132.2164789  90.2787628
 167.2884599 135.1123217  88.9557677 165.9963039 134.4585211  90.0230313
 165.5964407 135.5301457  88.6232770 165.7859448 131.4550218  88.5557150
 164.3235256 132.4832270  88.5740774 165.5085857 132.5895068  89.9226063
 170.3679904 132.6494292  85.9449391 171.8521579 131.8933141  86.5897570
 170.5413253 132.8857113  88.4513684 170.5377374 131.1354533  88.6305830
 168.4706078 132.8875210  87.9930000 169.7460000 129.5310000  88.1650000
 166.2650000 135.1510000  96.9620000 166.7030000 134.8290000  95.6440000
 168.2196870 134.9620422  95.5760128 168.8258325 134.0614892  96.5002661
 165.2950000 135.0340000  96.9420000 166.2231500 135.5120745  94.9369185
 166.3944998 133.8008257  95.4309032 168.5357786 135.9749699  95.8470657
 168.5878866 134.7290970  94.5734997 168.3912520 134.2463657  97.3558065
 168.1970000 132.3670000 102.3850000 166.1430000 133.5140000 101.2690000
 166.2539214 134.7471885 102.1639740 165.3788707 132.4288749 102.0137234
 170.7588790 131.8365784  99.7327728 170.1922276 131.9560000 101.1580000
 168.7750000 131.9560000 101.1580000 168.8960000 130.9840000 101.1890000
 168.3711057 131.4071082 101.8852381 167.9773487 132.2164789 103.4437628
 167.2884599 135.1123217 102.1207677 165.9963039 134.4585211 103.1880313
 165.5964407 135.5301457 101.7882770 165.7859448 131.4550218 101.7207150
 164.3235256 132.4832270 101.7390774 165.5085857 132.5895068 103.0876063
 170.3679904 132.6494292  99.1099391 171.8521579 131.8933141  99.7547570
 170.5413253 132.8857113 101.6163684 170.5377374 131.1354533 101.7955830
 168.4706078 132.8875210 101.1580000 169.7460000 129.5310000 101.3300000
 166.2650000 135.1510000 110.1270000 166.7030000 134.8290000 108.8090000
 168.2196870 134.9620422 108.7410128 168.8258325 134.0614892 109.6652661
 165.2950000 135.0340000 110.1070000 166.2231500 135.5120745 108.1019185
 166.3944998 133.8008257 108.5959032 168.5357786 135.9749699 109.0120657
 168.5878866 134.7290970 107.7384997 168.3912520 134.2463657 110.5208065
 168.1970000 132.3670000 115.5510000 166.1430000 133.5140000 114.4350000
 166.2539214 134.7471885 115.3299740 165.3788707 132.4288749 115.1797234
 170.7588790 131.8365784 112.8987728 170.1922276 131.9560000 114.3240000
 168.7750000 131.9560000 114.3240000 168.8960000 130.9840000 114.3550000
 168.3711057 131.4071082 115.0512381 167.9773487 132.2164789 116.6097628
 167.2884599 135.1123217 115.2867677 165.9963039 134.4585211 116.3540313
 165.5964407 135.5301457 114.9542770 165.7859448 131.4550218 114.8867150
 164.3235256 132.4832270 114.9050774 165.5085857 132.5895068 116.2536063
 170.3679904 132.6494292 112.2759391 171.8521579 131.8933141 112.9207570
 170.5413253 132.8857113 114.7823684 170.5377374 131.1354533 114.9615830
 168.4706078 132.8875210 114.3240000 169.7460000 129.5310000 114.4960000
 166.2650000 135.1510000 123.2930000 166.7030000 134.8290000 121.9750000
 168.2196870 134.9620422 121.9070128 168.8258325 134.0614892 122.8312661
 165.2950000 135.0340000 123.2730000 166.2231500 135.5120745 121.2679185
 166.3944998 133.8008257 121.7619032 168.5357786 135.9749699 122.1780657
 168.5878866 134.7290970 120.9044997 168.3912520 134.2463657 123.6868065
 168.1970000 132.3670000 128.7160000 166.1430000 133.5140000 127.6000000
 166.2539214 134.7471885 128.4949740 165.3788707 132.4288749 128.3447234
 170.7588790 131.8365784 126.0637728 170.1922276 131.9560000 127.4890000
 168.7750000 131.9560000 127.4890000 168.8960000 130.9840000 127.5200000
 168.3711057 131.4071082 128.2162381 167.9773487 132.2164789 129.7747628
 167.2884599 135.1123217 128.4517677 165.9963039 134.4585211 129.5190313
 165.5964407 135.5301457 128.1192770 165.7859448 131.4550218 128.0517150
 164.3235256 132.4832270 128.0700774 165.5085857 132.5895068 129.4186063
 170.3679904 132.6494292 125.4409391 171.8521579 131.8933141 126.0857570
 170.5413253 132.8857113 127.9473684 170.5377374 131.1354533 128.1265830
 168.4706078 132.8875210 127.4890000 169.7460000 129.5310000 127.6610000
 166.2650000 135.1510000 136.4580000 166.7030000 134.8290000 135.1400000
 168.2196870 134.9620422 135.0720128 168.8258325 134.0614892 135.9962661
 165.2950000 135.0340000 136.4380000 166.2231500 135.5120745 134.4329185
 166.3944998 133.8008257 134.9269032 168.5357786 135.9749699 135.3430657
 168.5878866 134.7290970 134.0694997 168.3912520 134.2463657 136.8518065
 168.1970000 132.3670000 141.8810000 166.1430000 133.5140000 140.7650000
 166.2539214 134.7471885 141.6599740 165.3788707 132.4288749 141.5097234
 170.7588790 131.8365784 139.2287728 170.1922276 131.9560000 140.6540000
 168.7750000 131.9560000 140.6540000 168.8960000 130.9840000 140.6850000
 168.3711057 131.4071082 141.3812381 167.9773487 132.2164789 142.9397628
 167.2884599 135.1123217 141.6167677 165.9963039 134.4585211 142.6840313
 165.5964407 135.5301457 141.2842770 165.7859448 131.4550218 141.2167150
 164.3235256 132.4832270 141.2350774 165.5085857 132.5895068 142.5836063
 170.3679904 132.6494292 138.6059391 171.8521579 131.8933141 139.2507570
 170.5413253 132.8857113 141.1123684 170.5377374 131.1354533 141.2915830
 168.4706078 132.8875210 140.6540000 169.7460000 129.5310000 140.8260000
 166.2650000 135.1510000 149.6230000 166.7030000 134.8290000 148.3050000
 168.2196870 134.9620422 148.2370128 168.8258325 134.0614892 149.1612661
 165.2950000 135.0340000 149.6030000 166.2231500 135.5120745 147.5979185
 166.3944998 133.8008257 148.0919032 168.5357786 135.9749699 148.5080657
 168.5878866 134.7290970 147.2344997 168.3912520 134.2463657 150.0168065
 168.1970000 132.3670000 155.0460000 166.1430000 133.5140000 153.9300000
 166.2539214 134.7471885 154.8249740 165.3788707 132.4288749 154.6747234
 170.7588790 131.8365784 152.3937728 170.1922276 131.9560000 153.8190000
 168.7750000 131.9560000 153.8190000 168.8960000 130.9840000 153.8500000
 168.3711057 131.4071082 154.5462381 167.9773487 132.2164789 156.1047628
 167.2884599 135.1123217 154.7817677 165.9963039 134.4585211 155.8490313
 165.5964407 135.5301457 154.4492770 165.7859448 131.4550218 154.3817150
 164.3235256 132.4832270 154.4000774 165.5085857 132.5895068 155.7486063
 170.3679904 132.6494292 151.7709391 171.8521579 131.8933141 152.4157570
 170.5413253 132.8857113 154.2773684 170.5377374 131.1354533 154.4565830
 168.4706078 132.8875210 153.8190000 169.7460000 129.5310000 153.9910000
 166.2650000 135.1510000 162.7880000 166.7030000 134.8290000 161.4700000
 168.2196870 134.9620422 161.4020128 168.8258325 134.0614892 162.3262661
 165.2950000 135.0340000 162.7680000 166.2231500 135.5120745 160.7629185
 166.3944998 133.8008257 161.2569032 168.5357786 135.9749699 161.6730657
 168.5878866 134.7290970 160.3994997 168.3912520 134.2463657 163.1818065
 168.1970000 132.3670000 168.2110000 166.1430000 133.5140000 167.0950000
 166.2539214 134.7471885 167.9899740 165.3788707 132.4288749 167.8397234
 170.7588790 131.8365784 165.5587728 170.1922276 131.9560000 166.9840000
 168.7750000 131.9560000 166.9840000 168.8960000 130.9840000 167.0150000
 168.3711057 131.4071082 167.7112381 167.9773487 132.2164789 169.2697628
 167.2884599 135.1123217 167.9467677 165.9963039 134.4585211 169.0140313
 165.5964407 135.5301457 167.6142770 165.7859448 131.4550218 167.5467150
 164.3235256 132.4832270 167.5650774 165.5085857 132.5895068 168.9136063
 170.3679904 132.6494292 164.9359391 171.8521579 131.8933141 165.5807570
 170.5413253 132.8857113 167.4423684 170.5377374 131.1354533 167.6215830
 168.4706078 132.8875210 166.9840000 169.7460000 129.5310000 167.1560000
 166.2650000 135.1510000 175.9530000 166.7030000 134.8290000 174.6350000
 168.2196870 134.9620422 174.5670128 168.8258325 134.0614892 175.4912661
 165.2950000 135.0340000 175.9330000 166.2231500 135.5120745 173.9279185
 166.3944998 133.8008257 174.4219032 168.5357786 135.9749699 174.8380657
 168.5878866 134.7290970 173.5644997 168.3912520 134.2463657 176.3468065
 168.1970000 132.3670000 181.3770000 166.1430000 133.5140000 180.2610000
 166.2539214 134.7471885 181.1559740 165.3788707 132.4288749 181.0057234
 170.7588790 131.8365784 178.7247728 170.1922276 131.9560000 180.1500000
 168.7750000 131.9560000 180.1500000 168.8960000 130.9840000 180.1810000
 168.3711057 131.4071082 180.8772381 167.9773487 132.2164789 182.4357628
 167.2884599 135.1123217 181.1127677 165.9963039 134.4585211 182.1800313
 165.5964407 135.5301457 180.7802770 165.7859448 131.4550218 180.7127150
 164.3235256 132.4832270 180.7310774 165.5085857 132.5895068 182.0796063
 170.3679904 132.6494292 178.1019391 171.8521579 131.8933141 178.7467570
 170.5413253 132.8857113 180.6083684 170.5377374 131.1354533 180.7875830
 168.4706078 132.8875210 180.1500000 169.7460000 129.5310000 180.3220000
 166.2650000 135.1510000 189.1190000 166.7030000 134.8290000 187.8010000
 168.2196870 134.9620422 187.7330128 168.8258325 134.0614892 188.6572661
 165.2950000 135.0340000 189.0990000 166.2231500 135.5120745 187.0939185
 166.3944998 133.8008257 187.5879032 168.5357786 135.9749699 188.0040657
 168.5878866 134.7290970 186.7304997 168.3912520 134.2463657 189.5128065
 168.1970000 132.3670000 194.5420000 166.1430000 133.5140000 193.4260000
 166.2539214 134.7471885 194.3209740 165.3788707 132.4288749 194.1707234
 170.7588790 131.8365784 191.8897728 170.1922276 131.9560000 193.3150000
 168.7750000 131.9560000 193.3150000 168.8960000 130.9840000 193.3460000
 168.3711057 131.4071082 194.0422381 167.9773487 132.2164789 195.6007628
 167.2884599 135.1123217 194.2777677 165.9963039 134.4585211 195.3450313
 165.5964407 135.5301457 193.9452770 165.7859448 131.4550218 193.8777150
 164.3235256 132.4832270 193.8960774 165.5085857 132.5895068 195.2446063
 170.3679904 132.6494292 191.2669391 171.8521579 131.8933141 191.9117570
 170.5413253 132.8857113 193.7733684 170.5377374 131.1354533 193.9525830
 168.4706078 132.8875210 193.3150000 169.7460000 129.5310000 193.4870000
 166.2650000 135.1510000 202.2840000 166.7030000 134.8290000 200.9660000
 168.2196870 134.9620422 200.8980128 168.8258325 134.0614892 201.8222661
 165.2950000 135.0340000 202.2640000 166.2231500 135.5120745 200.2589185
 166.3944998 133.8008257 200.7529032 168.5357786 135.9749699 201.1690657
 168.5878866 134.7290970 199.8954997 168.3912520 134.2463657 202.6778065
 168.1970000 139.6840000  76.0550000 166.1430000 140.8310000  74.9390000
 166.2539214 142.0641885  75.8339740 165.3788707 139.7458749  75.6837234
 170.7588790 139.1535784  73.4027728 170.1922276 139.2730000  74.8280000
 168.7750000 139.2730000  74.8280000 168.8960000 138.3010000  74.8590000
 168.3711057 138.7241082  75.5552381 167.9773487 139.5334789  77.1137628
 167.2884599 142.4293217  75.7907677 165.9963039 141.7755211  76.8580313
 165.5964407 142.8471457  75.4582770 165.7859448 138.7720218  75.3907150
 164.3235256 139.8002270  75.4090774 165.5085857 139.9065068  76.7576063
 170.3679904 139.9664292  72.7799391 171.8521579 139.2103141  73.4247570
 170.5413253 140.2027113  75.2863684 170.5377374 138.4524533  75.4655830
 168.4706078 140.2045210  74.8280000 169.7460000 136.8480000  75.0000000
 166.2650000 142.4680000  83.7970000 166.7030000 142.1460000  82.4790000
 168.2196870 142.2790422  82.4110128 168.8258325 141.3784892  83.3352661
 165.2950000 142.3510000  83.7770000 166.2231500 142.8290745  81.7719185
 166.3944998 141.1178257  82.2659032 168.5357786 143.2919699  82.6820657
 168.5878866 142.0460970  81.4084997 168.3912520 141.5633657  84.1908065
 168.1970000 139.6840000  89.2200000 166.1430000 140.8310000  88.1040000
 166.2539214 142.0641885  88.9989740 165.3788707 139.7458749  88.8487234
 170.7588790 139.1535784  86.5677728 170.1922276 139.2730000  87.9930000
 168.7750000 139.2730000  87.9930000 168.8960000 138.3010000  88.0240000
 168.3711057 138.7241082  88.7202381 167.9773487 139.5334789  90.2787628
 167.2884599 142.4293217  88.9557677 165.9963039 141.7755211  90.0230313
 165.5964407 142.8471457  88.6232770 165.7859448 138.7720218  88.5557150
 164.3235256 139.8002270  88.5740774 165.5085857 139.9065068  89.9226063
 170.3679904 139.9664292  85.9449391 171.8521579 139.2103141  86.5897570
 170.5413253 140.2027113  88.4513684 170.5377374 138.4524533  88.6305830
 168.4706078 140.2045210  87.9930000 169.7460000 136.8480000  88.1650000
 166.2650000 142.4680000  96.9620000 166.7030000 142.1460000  95.6440000
 168.2196870 142.2790422  95.5760128 168.8258325 141.3784892  96.5002661
 165.2950000 142.3510000  96.9420000 166.2231500 142.8290745  94.9369185
 166.3944998 141.1178257  95.4309032 168.5357786 143.2919699  95.8470657
 168.5878866 142.0460970  94.5734997 168.3912520 141.5633657  97.3558065
 168.1970000 139.6840000 102.3850000 166.1430000 140.8310000 101.2690000
 166.2539214 142.0641885 102.1639740 165.3788707 139.7458749 102.0137234
 170.7588790 139.1535784  99.7327728 170.1922276 139.2730000 101.1580000
 168.7750000 139.2730000 101.1580000 168.8960000 138.3010000 101.1890000
 168.3711057 138.7241082 101.8852381 167.9773487 139.5334789 103.4437628
 167.2884599 142.4293217 102.1207677 165.9963039 141.7755211 103.1880313
 165.5964407 142.8471457 101.7882770 165.7859448 138.7720218 101.7207150
 164.3235256 139.8002270 101.7390774 165.5085857 139.9065068 103.0876063
 170.3679904 139.9664292  99.1099391 171.8521579 139.2103141  99.7547570
 170.5413253 140.2027113 101.6163684 170.5377374 138.4524533 101.7955830
 168.4706078 140.2045210 101.1580000 169.7460000 136.8480000 101.3300000
 166.2650000 142.4680000 110.1270000 166.7030000 142.1460000 108.8090000
 168.2196870 142.2790422 108.7410128 168.8258325 141.3784892 109.6652661
 165.2950000 142.3510000 110.1070000 166.2231500 142.8290745 108.1019185
 166.3944998 141.1178257 108.5959032 168.5357786 143.2919699 109.0120657
 168.5878866 142.0460970 107.7384997 168.3912520 141.5633657 110.5208065
 168.1970000 139.6840000 115.5510000 166.1430000 140.8310000 114.4350000
 166.2539214 142.0641885 115.3299740 165.3788707 139.7458749 115.1797234
 170.7588790 139.1535784 112.8987728 170.1922276 139.2730000 114.3240000
 168.7750000 139.2730000 114.3240000 168.8960000 138.3010000 114.3550000
 168.3711057 138.7241082 115.0512381 167.9773487 139.5334789 116.6097628
 167.2884599 142.4293217 115.2867677 165.9963039 141.7755211 116.3540313
 165.5964407 142.8471457 114.9542770 165.7859448 138.7720218 114.8867150
 164.3235256 139.8002270 114.9050774 165.5085857 139.9065068 116.2536063
 170.3679904 139.9664292 112.2759391 171.8521579 139.2103141 112.9207570
 170.5413253 140.2027113 114.7823684 170.5377374 138.4524533 114.9615830
 168.4706078 140.2045210 114.3240000 169.7460000 136.8480000 114.4960000
 166.2650000 142.4680000 123.2930000 166.7030000 142.1460000 121.9750000
 168.2196870 142.2790422 121.9070128 168.8258325 141.3784892 122.8312661
 165.2950000 142.3510000 123.2730000 166.2231500 142.8290745 121.2679185
 166.3944998 141.1178257 121.7619032 168.5357786 143.2919699 122.1780657
 168.5878866 142.0460970 120.9044997 168.3912520 141.5633657 123.6868065
 168.1970000 139.6840000 128.7160000 166.1430000 140.8310000 127.6000000
 166.2539214 142.0641885 128.4949740 165.3788707 139.7458749 128.3447234
 170.7588790 139.1535784 126.0637728 170.1922276 139.2730000 127.4890000
 168.7750000 139.2730000 127.4890000 168.8960000 138.3010000 127.5200000
 168.3711057 138.7241082 128.2162381 167.9773487 139.5334789 129.7747628
 167.2884599 142.4293217 128.4517677 165.9963039 141.7755211 129.5190313
 165.5964407 142.8471457 128.1192770 165.7859448 138.7720218 128.0517150
 164.3235256 139.8002270 128.0700774 165.5085857 139.9065068 129.4186063
 170.3679904 139.9664292 125.4409391 171.8521579 139.2103141 126.0857570
 170.5413253 140.2027113 127.9473684 170.5377374 138.4524533 128.1265830
 168.4706078 140.2045210 127.4890000 169.7460000 136.8480000 127.6610000
 166.2650000 142.4680000 136.4580000 166.7030000 142.1460000 135.1400000
 168.2196870 142.2790422 135.0720128 168.8258325 141.3784892 135.9962661
 165.2950000 142.3510000 136.4380000 166.2231500 142.8290745 134.4329185
 166.3944998 141.1178257 134.9269032 168.5357786 143.2919699 135.3430657
 168.5878866 142.0460970 134.0694997 168.3912520 141.5633657 136.8518065
 168.1970000 139.6840000 141.8810000 166.1430000 140.8310000 140.7650000
 166.2539214 142.0641885 141.6599740 165.3788707 139.7458749 141.5097234
 170.7588790 139.1535784 139.2287728 170.1922276 139.2730000 140.6540000
 168.7750000 139.2730000 140.6540000 168.8960000 138.3010000 140.6850000
 168.3711057 138.7241082 141.3812381 167.9773487 139.5334789 142.9397628
 167.2884599 142.4293217 141.6167677 165.9963039 141.7755211 142.6840313
 165.5964407 142.8471457 141.2842770 165.7859448 138.7720218 141.2167150
 164.3235256 139.8002270 141.2350774 165.5085857 139.9065068 142.5836063
 170.3679904 139.9664292 138.6059391 171.8521579 139.2103141 139.2507570
 170.5413253 140.2027113 141.1123684 170.5377374 138.4524533 141.2915830
 168.4706078 140.2045210 140.6540000 169.7460000 136.8480000 140.8260000
 166.2650000 142.4680000 149.6230000 166.7030000 142.1460000 148.3050000
 168.2196870 142.2790422 148.2370128 168.8258325 141.3784892 149.1612661
 165.2950000 142.3510000 149.6030000 166.2231500 142.8290745 147.5979185
 166.3944998 141.1178257 148.0919032 168.5357786 143.2919699 148.5080657
 168.5878866 142.0460970 147.2344997 168.3912520 141.5633657 150.0168065
 168.1970000 139.6840000 155.0460000 166.1430000 140.8310000 153.9300000
 166.2539214 142.0641885 154.8249740 165.3788707 139.7458749 154.6747234
 170.7588790 139.1535784 152.3937728 170.1922276 139.2730000 153.8190000
 168.7750000 139.2730000 153.8190000 168.8960000 138.3010000 153.8500000
 168.3711057 138.7241082 154.5462381 167.9773487 139.5334789 156.1047628
 167.2884599 142.4293217 154.7817677 165.9963039 141.7755211 155.8490313
 165.5964407 142.8471457 154.4492770 165.7859448 138.7720218 154.3817150
 164.3235256 139.8002270 154.4000774 165.5085857 139.9065068 155.7486063
 170.3679904 139.9664292 151.7709391 171.8521579 139.2103141 152.4157570
 170.5413253 140.2027113 154.2773684 170.5377374 138.4524533 154.4565830
 168.4706078 140.2045210 153.8190000 169.7460000 136.8480000 153.9910000
 166.2650000 142.4680000 162.7880000 166.7030000 142.1460000 161.4700000
 168.2196870 142.2790422 161.4020128 168.8258325 141.3784892 162.3262661
 165.2950000 142.3510000 162.7680000 166.2231500 142.8290745 160.7629185
 166.3944998 141.1178257 161.2569032 168.5357786 143.2919699 161.6730657
 168.5878866 142.0460970 160.3994997 168.3912520 141.5633657 163.1818065
 168.1970000 139.6840000 168.2110000 166.1430000 140.8310000 167.0950000
 166.2539214 142.0641885 167.9899740 165.3788707 139.7458749 167.8397234
 170.7588790 139.1535784 165.5587728 170.1922276 139.2730000 166.9840000
 168.7750000 139.2730000 166.9840000 168.8960000 138.3010000 167.0150000
 168.3711057 138.7241082 167.7112381 167.9773487 139.5334789 169.2697628
 167.2884599 142.4293217 167.9467677 165.9963039 141.7755211 169.0140313
 165.5964407 142.8471457 167.6142770 165.7859448 138.7720218 167.5467150
 164.3235256 139.8002270 167.5650774 165.5085857 139.9065068 168.9136063
 170.3679904 139.9664292 164.9359391 171.8521579 139.2103141 165.5807570
 170.5413253 140.2027113 167.4423684 170.5377374 138.4524533 167.6215830
 168.4706078 140.2045210 166.9840000 169.7460000 136.8480000 167.1560000
 166.2650000 142.4680000 175.9530000 166.7030000 142.1460000 174.6350000
 168.2196870 142.2790422 174.5670128 168.8258325 141.3784892 175.4912661
 165.2950000 142.3510000 175.9330000 166.2231500 142.8290745 173.9279185
 166.3944998 141.1178257 174.4219032 168.5357786 143.2919699 174.8380657
 168.5878866 142.0460970 173.5644997 168.3912520 141.5633657 176.3468065
 168.1970000 139.6840000 181.3770000 166.1430000 140.8310000 180.2610000
 166.2539214 142.0641885 181.1559740 165.3788707 139.7458749 181.0057234
 170.7588790 139.1535784 178.7247728 170.1922276 139.2730000 180.1500000
 168.7750000 139.2730000 180.1500000 168.8960000 138.3010000 180.1810000
 168.3711057 138.7241082 180.8772381 167.9773487 139.5334789 182.4357628
 167.2884599 142.4293217 181.1127677 165.9963039 141.7755211 182.1800313
 165.5964407 142.8471457 180.7802770 165.7859448 138.7720218 180.7127150
 164.3235256 139.8002270 180.7310774 165.5085857 139.9065068 182.0796063
 170.3679904 139.9664292 178.1019391 171.8521579 139.2103141 178.7467570
 170.5413253 140.2027113 180.6083684 170.5377374 138.4524533 180.7875830
 168.4706078 140.2045210 180.1500000 169.7460000 136.8480000 180.3220000
 166.2650000 142.4680000 189.1190000 166.7030000 142.1460000 187.8010000
 168.2196870 142.2790422 187.7330128 168.8258325 141.3784892 188.6572661
 165.2950000 142.3510000 189.0990000 166.2231500 142.8290745 187.0939185
 166.3944998 141.1178257 187.5879032 168.5357786 143.2919699 188.0040657
 168.5878866 142.0460970 186.7304997 168.3912520 141.5633657 189.5128065
 168.1970000 139.6840000 194.5420000 166.1430000 140.8310000 193.4260000
 166.2539214 142.0641885 194.3209740 165.3788707 139.7458749 194.1707234
 170.7588790 139.1535784 191.8897728 170.1922276 139.2730000 193.3150000
 168.7750000 139.2730000 193.3150000 168.8960000 138.3010000 193.3460000
 168.3711057 138.7241082 194.0422381 167.9773487 139.5334789 195.6007628
 167.2884599 142.4293217 194.2777677 165.9963039 141.7755211 195.3450313
 165.5964407 142.8471457 193.9452770 165.7859448 138.7720218 193.8777150
 164.3235256 139.8002270 193.8960774 165.5085857 139.9065068 195.2446063
 170.3679904 139.9664292 191.2669391 171.8521579 139.2103141 191.9117570
 170.5413253 140.2027113 193.7733684 170.5377374 138.4524533 193.9525830
 168.4706078 140.2045210 193.3150000 169.7460000 136.8480000 193.4870000
 166.2650000 142.4680000 202.2840000 166.7030000 142.1460000 200.9660000
 168.2196870 142.2790422 200.8980128 168.8258325 141.3784892 201.8222661
 165.2950000 142.3510000 202.2640000 166.2231500 142.8290745 200.2589185
 166.3944998 141.1178257 200.7529032 168.5357786 143.2919699 201.1690657
 168.5878866 142.0460970 199.8954997 168.3912520 141.5633657 202.6778065
 180.8750000  73.8360000  76.0550000 178.8210000  74.9830000  74.9390000
 178.9319214  76.2161885  75.8339740 178.0568707  73.8978749  75.6837234
 183.4368790  73.3055784  73.4027728 182.8702276  73.4250000  74.8280000
 181.4530000  73.4250000  74.8280000 181.5740000  72.4530000  74.8590000
 181.0491057  72.8761082  75.5552381 180.6553487  73.6854789  77.1137628
 179.9664599  76.5813217  75.7907677 178.6743039  75.9275211  76.8580313
 178.2744407  76.9991457  75.4582770 178.4639448  72.9240218  75.3907150
 177.0015256  73.9522270  75.4090774 178.1865857  74.0585068  76.7576063
 183.0459904  74.1184292  72.7799391 184.5301579  73.3623141  73.4247570
 183.2193253  74.3547113  75.2863684 183.2157374  72.6044533  75.4655830
 181.1486078  74.3565210  74.8280000 182.4240000  71.0000000  75.0000000
 178.9430000  76.6200000  83.7970000 179.3810000  76.2980000  82.4790000
 180.8976870  76.4310422  82.4110128 181.5038325  75.5304892  83.3352661
 177.9730000  76.5030000  83.7770000 178.9011500  76.9810745  81.7719185
 179.0724998  75.2698257  82.2659032 181.2137786  77.4439699  82.6820657
 181.2658866  76.1980970  81.4084997 181.0692520  75.7153657  84.1908065
 180.8750000  73.8360000  89.2200000 178.8210000  74.9830000  88.1040000
 178.9319214  76.2161885  88.9989740 178.0568707  73.8978749  88.8487234
 183.4368790  73.3055784  86.5677728 182.8702276  73.4250000  87.9930000
 181.4530000  73.4250000  87.9930000 181.5740000  72.4530000  88.0240000
 181.0491057  72.8761082  88.7202381 180.6553487  73.6854789  90.2787628
 179.9664599  76.5813217  88.9557677 178.6743039  75.9275211  90.0230313
 178.2744407  76.9991457  88.6232770 178.4639448  72.9240218  88.5557150
 177.0015256  73.9522270  88.5740774 178.1865857  74.0585068  89.9226063
 183.0459904  74.1184292  85.9449391 184.5301579  73.3623141  86.5897570
 183.2193253  74.3547113  88.4513684 183.2157374  72.6044533  88.6305830
 181.1486078  74.3565210  87.9930000 182.4240000  71.0000000  88.1650000
 178.9430000  76.6200000  96.9620000 179.3810000  76.2980000  95.6440000
 180.8976870  76.4310422  95.5760128 181.5038325  75.5304892  96.5002661
 177.9730000  76.5030000  96.9420000 178.9011500  76.9810745  94.9369185
 179.0724998  75.2698257  95.4309032 181.2137786  77.4439699  95.8470657
 181.2658866  76.1980970  94.5734997 181.0692520  75.7153657  97.3558065
 180.8750000  73.8360000 102.3850000 178.8210000  74.9830000 101.2690000
 178.9319214  76.2161885 102.1639740 178.0568707  73.8978749 102.0137234
 183.4368790  73.3055784  99.7327728 182.8702276  73.4250000 101.1580000
 181.4530000  73.4250000 101.1580000 181.5740000  72.4530000 101.1890000
 181.0491057  72.8761082 101.8852381 180.6553487  73.6854789 103.4437628
 179.9664599  76.5813217 102.1207677 178.6743039  75.9275211 103.1880313
 178.2744407  76.9991457 101.7882770 178.4639448  72.9240218 101.7207150
 177.0015256  73.9522270 101.7390774 178.1865857  74.0585068 103.0876063
 183.0459904  74.1184292  99.1099391 184.5301579  73.3623141  99.7547570
 183.2193253  74.3547113 101.6163684 183.2157374  72.6044533 101.7955830
 181.1486078  74.3565210 101.1580000 182.4240000  71.0000000 101.3300000
 178.9430000  76.6200000 110.1270000 179.3810000  76.2980000 108.8090000
 180.8976870  76.4310422 108.7410128 181.5038325  75.5304892 109.6652661
 177.9730000  76.5030000 110.1070000 178.9011500  76.9810745 108.1019185
 179.0724998  75.2698257 108.5959032 181.2137786  77.4439699 109.0120657
 181.2658866  76.1980970 107.7384997 181.0692520  75.7153657 110.5208065
 180.8750000  73.8360000 115.5510000 178.8210000  74.9830000 114.4350000
 178.9319214  76.2161885 115.3299740 178.0568707  73.8978749 115.1797234
 183.4368790  73.3055784 112.8987728 182.8702276  73.4250000 114.3240000
 181.4530000  73.4250000 114.3240000 181.5740000  72.4530000 114.3550000
 181.0491057  72.8761082 115.0512381 180.6553487  73.6854789 116.6097628
 179.9664599  76.5813217 115.2867677 178.6743039  75.9275211 116.3540313
 178.2744407  76.9991457 114.9542770 178.4639448  72.9240218 114.8867150
 177.0015256  73.9522270 114.9050774 178.1865857  74.0585068 116.2536063
 183.0459904  74.1184292 112.2759391 184.5301579  73.3623141 112.9207570
 183.2193253  74.3547113 114.7823684 183.2157374  72.6044533 114.9615830
 181.1486078  74.3565210 114.3240000 182.4240000  71.0000000 114.4960000
 178.9430000  76.6200000 123.2930000 179.3810000  76.2980000 121.9750000
 180.8976870  76.4310422 121.9070128 181.5038325  75.5304892 122.8312661
 177.9730000  76.5030000 123.2730000 178.9011500  76.9810745 121.2679185
 179.0724998  75.2698257 121.7619032 181.2137786  77.4439699 122.1780657
 181.2658866  76.1980970 120.9044997 181.0692520  75.7153657 123.6868065
 180.8750000  73.8360000 128.7160000 178.8210000  74.9830000 127.6000000
 178.9319214  76.2161885 128.4949740 178.0568707  73.8978749 128.3447234
 183.4368790  73.3055784 126.0637728 182.8702276  73.4250000 127.4890000
 181.4530000  73.4250000 127.4890000 181.5740000  72.4530000 127.5200000
 181.0491057  72.8761082 128.2162381 180.6553487  73.6854789 129.7747628
 179.9664599  76.5813217 128.4517677 178.6743039  75.9275211 129.5190313
 178.2744407  76.9991457 128.1192770 178.4639448  72.9240218 128.0517150
 177.0015256  73.9522270 128.0700774 178.1865857  74.0585068 129.4186063
 183.0459904  74.1184292 125.4409391 184.5301579  73.3623141 126.0857570
 183.2193253  74.3547113 127.9473684 183.2157374  72.6044533 128.1265830
 181.1486078  74.3565210 127.4890000 182.4240000  71.0000000 127.6610000
 178.9430000  76.6200000 136.4580000 179.3810000  76.2980000 135.1400000
 180.8976870  76.4310422 135.0720128 181.5038325  75.5304892 135.9962661
 177.9730000  76.5030000 136.4380000 178.9011500  76.9810745 134.4329185
 179.0724998  75.2698257 134.9269032 181.2137786  77.4439699 135.3430657
 181.2658866  76.1980970 134.0694997 181.0692520  75.7153657 136.8518065
 180.8750000  73.8360000 141.8810000 178.8210000  74.9830000 140.7650000
 178.9319214  76.2161885 141.6599740 178.0568707  73.8978749 141.5097234
 183.4368790  73.3055784 139.2287728 182.8702276  73.4250000 140.6540000
 181.4530000  73.4250000 140.6540000 181.5740000  72.4530000 140.6850000
 181.0491057  72.8761082 141.3812381 180.6553487  73.6854789 142.9397628
 179.9664599  76.5813217 141.6167677 178.6743039  75.9275211 142.6840313
 178.2744407  76.9991457 141.2842770 178.4639448  72.9240218 141.2167150
 177.0015256  73.9522270 141.2350774 178.1865857  74.0585068 142.5836063
 183.0459904  74.1184292 138.6059391 184.5301579  73.3623141 139.2507570
 183.2193253  74.3547113 141.1123684 183.2157374  72.6044533 141.2915830
 181.1486078  74.3565210 140.6540000 182.4240000  71.0000000 140.8260000
 178.9430000  76.6200000 149.6230000 179.3810000  76.2980000 148.3050000
 180.8976870  76.4310422 148.2370128 181.5038325  75.5304892 149.1612661
 177.9730000  76.5030000 149.6030000 178.9011500  76.9810745 147.5979185
 179.0724998  75.2698257 148.0919032 181.2137786  77.4439699 148.5080657
 181.2658866  76.1980970 147.2344997 181.0692520  75.7153657 150.0168065
 180.8750000  73.8360000 155.0460000 178.8210000  74.9830000 153.9300000
 178.9319214  76.2161885 154.8249740 178.0568707  73.8978749 154.6747234
 183.4368790  73.3055784 152.3937728 182.8702276  73.4250000 153.8190000
 181.4530000  73.4250000 153.8190000 181.5740000  72.4530000 153.8500000
 181.0491057  72.8761082 154.5462381 180.6553487  73.6854789 156.1047628
 179.9664599  76.5813217 154.7817677 178.6743039  75.9275211 155.8490313
 178.2744407  76.9991457 154.4492770 178.4639448  72.9240218 154.3817150
 177.0015256  73.9522270 154.4000774 178.1865857  74.0585068 155.7486063
 183.0459904  74.1184292 151.7709391 184.5301579  73.3623141 152.4157570
 183.2193253  74.3547113 154.2773684 183.2157374  72.6044533 154.4565830
 181.1486078  74.3565210 153.8190000 182.4240000  71.0000000 153.9910000
 178.9430000  76.6200000 162.7880000 179.3810000  76.2980000 161.4700000
 180.8976870  76.4310422 161.4020128 181.5038325  75.5304892 162.3262661
 177.9730000  76.5030000 162.7680000 178.9011500  76.9810745 160.7629185
 179.0724998  75.2698257 161.2569032 181.2137786  77.4439699 161.6730657
 181.2658866  76.1980970 160.3994997 181.0692520  75.7153657 163.1818065
 180.8750000  73.8360000 168.2110000 178.8210000  74.9830000 167.0950000
 178.9319214  76.2161885 167.9899740 178.0568707  73.8978749 167.8397234
 183.4368790  73.3055784 165.5587728 182.8702276  73.4250000 166.9840000
 181.4530000  73.4250000 166.9840000 181.5740000  72.4530000 167.0150000
 181.0491057  72.8761082 167.7112381 180.6553487  73.6854789 169.2697628
 179.9664599  76.5813217 167.9467677 178.6743039  75.9275211 169.0140313
 178.2744407  76.9991457 167.6142770 178.4639448  72.9240218 167.5467150
 177.0015256  73.9522270 167.5650774 178.1865857  74.0585068 168.9136063
 183.0459904  74.1184292 164.9359391 184.5301579  73.3623141 165.5807570
 183.2193253  74.3547113 167.4423684 183.2157374  72.6044533 167.6215830
 181.1486078  74.3565210 166.9840000 182.4240000  71.0000000 167.1560000
 178.9430000  76.6200000 175.9530000 179.3810000  76.2980000 174.6350000
 180.8976870  76.4310422 174.5670128 181.5038325  75.5304892 175.4912661
 177.9730000  76.5030000 175.9330000 178.9011500  76.9810745 173.9279185
 179.0724998  75.2698257 174.4219032 181.2137786  77.4439699 174.8380657
 181.2658866  76.1980970 173.5644997 181.0692520  75.7153657 176.3468065
 180.8750000  73.8360000 181.3770000 178.8210000  74.9830000 180.2610000
 178.9319214  76.2161885 181.1559740 178.0568707  73.8978749 181.0057234
 183.4368790  73.3055784 178.7247728 182.8702276  73.4250000 180.1500000
 181.4530000  73.4250000 180.1500000 181.5740000  72.4530000 180.1810000
 181.0491057  72.8761082 180.8772381 180.6553487  73.6854789 182.4357628
 179.9664599  76.5813217 181.1127677 178.6743039  75.9275211 182.1800313
 178.2744407  76.9991457 180.7802770 178.4639448  72.9240218 180.7127150
 177.0015256  73.9522270 180.7310774 178.1865857  74.0585068 182.0796063
 183.0459904  74.1184292 178.1019391 184.5301579  73.3623141 178.7467570
 183.2193253  74.3547113 180.6083684 183.2157374  72.6044533 180.7875830
 181.1486078  74.3565210 180.1500000 182.4240000  71.0000000 180.3220000
 178.9430000  76.6200000 189.1190000 179.3810000  76.2980000 187.8010000
 180.8976870  76.4310422 187.7330128 181.5038325  75.5304892 188.6572661
 177.9730000  76.5030000 189.0990000 178.9011500  76.9810745 187.0939185
 179.0724998  75.2698257 187.5879032 181.2137786  77.4439699 188.0040657
 181.2658866  76.1980970 186.7304997 181.0692520  75.7153657 189.5128065
 180.8750000  73.8360000 194.5420000 178.8210000  74.9830000 193.4260000
 178.9319214  76.2161885 194.3209740 178.0568707  73.8978749 194.1707234
 183.4368790  73.3055784 191.8897728 182.8702276  73.4250000 193.3150000
 181.4530000  73.4250000 193.3150000 181.5740000  72.4530000 193.3460000
 181.0491057  72.8761082 194.0422381 180.6553487  73.6854789 195.6007628
 179.9664599  76.5813217 194.2777677 178.6743039  75.9275211 195.3450313
 178.2744407  76.9991457 193.9452770 178.4639448  72.9240218 193.8777150
 177.0015256  73.9522270 193.8960774 178.1865857  74.0585068 195.2446063
 183.0459904  74.1184292 191.2669391 184.5301579  73.3623141 191.9117570
 183.2193253  74.3547113 193.7733684 183.2157374  72.6044533 193.9525830
 181.1486078  74.3565210 193.3150000 182.4240000  71.0000000 193.4870000
 178.9430000  76.6200000 202.2840000 179.3810000  76.2980000 200.9660000
 180.8976870  76.4310422 200.8980128 181.5038325  75.5304892 201.8222661
 177.9730000  76.5030000 202.2640000 178.9011500  76.9810745 200.2589185
 179.0724998  75.2698257 200.7529032 181.2137786  77.4439699 201.1690657
 181.2658866  76.1980970 199.8954997 181.0692520  75.7153657 202.6778065
 180.8750000  81.1520000  76.0550000 178.8210000  82.2990000  74.9390000
 178.9319214  83.5321885  75.8339740 178.0568707  81.2138749  75.6837234
 183.4368790  80.6215784  73.4027728 182.8702276  80.7410000  74.8280000
 181.4530000  80.7410000  74.8280000 181.5740000  79.7690000  74.8590000
 181.0491057  80.1921082  75.5552381 180.6553487  81.0014789  77.1137628
 179.9664599  83.8973217  75.7907677 178.6743039  83.2435211  76.8580313
 178.2744407  84.3151457  75.4582770 178.4639448  80.2400218  75.3907150
 177.0015256  81.2682270  75.4090774 178.1865857  81.3745068  76.7576063
 183.0459904  81.4344292  72.7799391 184.5301579  80.6783141  73.4247570
 183.2193253  81.6707113  75.2863684 183.2157374  79.9204533  75.4655830
 181.1486078  81.6725210  74.8280000 182.4240000  78.3160000  75.0000000
 178.9430000  83.9360000  83.7970000 179.3810000  83.6140000  82.4790000
 180.8976870  83.7470422  82.4110128 181.5038325  82.8464892  83.3352661
 177.9730000  83.8190000  83.7770000 178.9011500  84.2970745  81.7719185
 179.0724998  82.5858257  82.2659032 181.2137786  84.7599699  82.6820657
 181.2658866  83.5140970  81.4084997 181.0692520  83.0313657  84.1908065
 180.8750000  81.1520000  89.2200000 178.8210000  82.2990000  88.1040000
 178.9319214  83.5321885  88.9989740 178.0568707  81.2138749  88.8487234
 183.4368790  80.6215784  86.5677728 182.8702276  80.7410000  87.9930000
 181.4530000  80.7410000  87.9930000 181.5740000  79.7690000  88.0240000
 181.0491057  80.1921082  88.7202381 180.6553487  81.0014789  90.2787628
 179.9664599  83.8973217  88.9557677 178.6743039  83.2435211  90.0230313
 178.2744407  84.3151457  88.6232770 178.4639448  80.2400218  88.5557150
 177.0015256  81.2682270  88.5740774 178.1865857  81.3745068  89.9226063
 183.0459904  81.4344292  85.9449391 184.5301579  80.6783141  86.5897570
 183.2193253  81.6707113  88.4513684 183.2157374  79.9204533  88.6305830
 181.1486078  81.6725210  87.9930000 182.4240000  78.3160000  88.1650000
 178.9430000  83.9360000  96.9620000 179.3810000  83.6140000  95.6440000
 180.8976870  83.7470422  95.5760128 181.5038325  82.8464892  96.5002661
 177.9730000  83.8190000  96.9420000 178.9011500  84.2970745  94.9369185
 179.0724998  82.5858257  95.4309032 181.2137786  84.7599699  95.8470657
 181.2658866  83.5140970  94.5734997 181.0692520  83.0313657  97.3558065
 180.8750000  81.1520000 102.3850000 178.8210000  82.2990000 101.2690000
 178.9319214  83.5321885 102.1639740 178.0568707  81.2138749 102.0137234
 183.4368790  80.6215784  99.7327728 182.8702276  80.7410000 101.1580000
 181.4530000  80.7410000 101.1580000 181.5740000  79.7690000 101.1890000
 181.0491057  80.1921082 101.8852381 180.6553487  81.0014789 103.4437628
 179.9664599  83.8973217 102.1207677 178.6743039  83.2435211 103.1880313
 178.2744407  84.3151457 101.7882770 178.4639448  80.2400218 101.7207150
 177.0015256  81.2682270 101.7390774 178.1865857  81.3745068 103.0876063
 183.0459904  81.4344292  99.1099391 184.5301579  80.6783141  99.7547570
 183.2193253  81.6707113 101.6163684 183.2157374  79.9204533 101.7955830
 181.1486078  81.6725210 101.1580000 182.4240000  78.3160000 101.3300000
 178.9430000  83.9360000 110.1270000 179.3810000  83.6140000 108.8090000
 180.8976870  83.7470422 108.7410128 181.5038325  82.8464892 109.6652661
 177.9730000  83.8190000 110.1070000 178.9011500  84.2970745 108.1019185
 179.0724998  82.5858257 108.5959032 181.2137786  84.7599699 109.0120657
 181.2658866  83.5140970 107.7384997 181.0692520  83.0313657 110.5208065
 180.8750000  81.1520000 115.5510000 178.8210000  82.2990000 114.4350000
 178.9319214  83.5321885 115.3299740 178.0568707  81.2138749 115.1797234
 183.4368790  80.6215784 112.8987728 182.8702276  80.7410000 114.3240000
 181.4530000  80.7410000 114.3240000 181.5740000  79.7690000 114.3550000
 181.0491057  80.1921082 115.0512381 180.6553487  81.0014789 116.6097628
 179.9664599  83.8973217 115.2867677 178.6743039  83.2435211 116.3540313
 178.2744407  84.3151457 114.9542770 178.4639448  80.2400218 114.8867150
 177.0015256  81.2682270 114.9050774 178.1865857  81.3745068 116.2536063
 183.0459904  81.4344292 112.2759391 184.5301579  80.6783141 112.9207570
 183.2193253  81.6707113 114.7823684 183.2157374  79.9204533 114.9615830
 181.1486078  81.6725210 114.3240000 182.4240000  78.3160000 114.4960000
 178.9430000  83.9360000 123.2930000 179.3810000  83.6140000 121.9750000
 180.8976870  83.7470422 121.9070128 181.5038325  82.8464892 122.8312661
 177.9730000  83.8190000 123.2730000 178.9011500  84.2970745 121.2679185
 179.0724998  82.5858257 121.7619032 181.2137786  84.7599699 122.1780657
 181.2658866  83.5140970 120.9044997 181.0692520  83.0313657 123.6868065
 180.8750000  81.1520000 128.7160000 178.8210000  82.2990000 127.6000000
 178.9319214  83.5321885 128.4949740 178.0568707  81.2138749 128.3447234
 183.4368790  80.6215784 126.0637728 182.8702276  80.7410000 127.4890000
 181.4530000  80.7410000 127.4890000 181.5740000  79.7690000 127.5200000
 181.0491057  80.1921082 128.2162381 180.6553487  81.0014789 129.7747628
 179.9664599  83.8973217 128.4517677 178.6743039  83.2435211 129.5190313
 178.2744407  84.3151457 128.1192770 178.4639448  80.2400218 128.0517150
 177.0015256  81.2682270 128.0700774 178.1865857  81.3745068 129.4186063
 183.0459904  81.4344292 125.4409391 184.5301579  80.6783141 126.0857570
 183.2193253  81.6707113 127.9473684 183.2157374  79.9204533 128.1265830
 181.1486078  81.6725210 127.4890000 182.4240000  78.3160000 127.6610000
 178.9430000  83.9360000 136.4580000 179.3810000  83.6140000 135.1400000
 180.8976870  83.7470422 135.0720128 181.5038325  82.8464892 135.9962661
 177.9730000  83.8190000 136.4380000 178.9011500  84.2970745 134.4329185
 179.0724998  82.5858257 134.9269032 181.2137786  84.7599699 135.3430657
 181.2658866  83.5140970 134.0694997 181.0692520  83.0313657 136.8518065
 180.8750000  81.1520000 141.8810000 178.8210000  82.2990000 140.7650000
 178.9319214  83.5321885 141.6599740 178.0568707  81.2138749 141.5097234
 183.4368790  80.6215784 139.2287728 182.8702276  80.7410000 140.6540000
 181.4530000  80.7410000 140.6540000 181.5740000  79.7690000 140.6850000
 181.0491057  80.1921082 141.3812381 180.6553487  81.0014789 142.9397628
 179.9664599  83.8973217 141.6167677 178.6743039  83.2435211 142.6840313
 178.2744407  84.3151457 141.2842770 178.4639448  80.2400218 141.2167150
 177.0015256  81.2682270 141.2350774 178.1865857  81.3745068 142.5836063
 183.0459904  81.4344292 138.6059391 184.5301579  80.6783141 139.2507570
 183.2193253  81.6707113 141.1123684 183.2157374  79.9204533 141.2915830
 181.1486078  81.6725210 140.6540000 182.4240000  78.3160000 140.8260000
 178.9430000  83.9360000 149.6230000 179.3810000  83.6140000 148.3050000
 180.8976870  83.7470422 148.2370128 181.5038325  82.8464892 149.1612661
 177.9730000  83.8190000 149.6030000 178.9011500  84.2970745 147.5979185
 179.0724998  82.5858257 148.0919032 181.2137786  84.7599699 148.5080657
 181.2658866  83.5140970 147.2344997 181.0692520  83.0313657 150.0168065
 180.8750000  81.1520000 155.0460000 178.8210000  82.2990000 153.9300000
 178.9319214  83.5321885 154.8249740 178.0568707  81.2138749 154.6747234
 183.4368790  80.6215784 152.3937728 182.8702276  80.7410000 153.8190000
 181.4530000  80.7410000 153.8190000 181.5740000  79.7690000 153.8500000
 181.0491057  80.1921082 154.5462381 180.6553487  81.0014789 156.1047628
 179.9664599  83.8973217 154.7817677 178.6743039  83.2435211 155.8490313
 178.2744407  84.3151457 154.4492770 178.4639448  80.2400218 154.3817150
 177.0015256  81.2682270 154.4000774 178.1865857  81.3745068 155.7486063
 183.0459904  81.4344292 151.7709391 184.5301579  80.6783141 152.4157570
 183.2193253  81.6707113 154.2773684 183.2157374  79.9204533 154.4565830
 181.1486078  81.6725210 153.8190000 182.4240000  78.3160000 153.9910000
 178.9430000  83.9360000 162.7880000 179.3810000  83.6140000 161.4700000
 180.8976870  83.7470422 161.4020128 181.5038325  82.8464892 162.3262661
 177.9730000  83.8190000 162.7680000 178.9011500  84.2970745 160.7629185
 179.0724998  82.5858257 161.2569032 181.2137786  84.7599699 161.6730657
 181.2658866  83.5140970 160.3994997 181.0692520  83.0313657 163.1818065
 180.8750000  81.1520000 168.2110000 178.8210000  82.2990000 167.0950000
 178.9319214  83.5321885 167.9899740 178.0568707  81.2138749 167.8397234
 183.4368790  80.6215784 165.5587728 182.8702276  80.7410000 166.9840000
 181.4530000  80.7410000 166.9840000 181.5740000  79.7690000 167.0150000
 181.0491057  80.1921082 167.7112381 180.6553487  81.0014789 169.2697628
 179.9664599  83.8973217 167.9467677 178.6743039  83.2435211 169.0140313
 178.2744407  84.3151457 167.6142770 178.4639448  80.2400218 167.5467150
 177.0015256  81.2682270 167.5650774 178.1865857  81.3745068 168.9136063
 183.0459904  81.4344292 164.9359391 184.5301579  80.6783141 165.5807570
 183.2193253  81.6707113 167.4423684 183.2157374  79.9204533 167.6215830
 181.1486078  81.6725210 166.9840000 182.4240000  78.3160000 167.1560000
 178.9430000  83.9360000 175.9530000 179.3810000  83.6140000 174.6350000
 180.8976870  83.7470422 174.5670128 181.5038325  82.8464892 175.4912661
 177.9730000  83.8190000 175.9330000 178.9011500  84.2970745 173.9279185
 179.0724998  82.5858257 174.4219032 181.2137786  84.7599699 174.8380657
 181.2658866  83.5140970 173.5644997 181.0692520  83.0313657 176.3468065
 180.8750000  81.1520000 181.3770000 178.8210000  82.2990000 180.2610000
 178.9319214  83.5321885 181.1559740 178.0568707  81.2138749 181.0057234
 183.4368790  80.6215784 178.7247728 182.8702276  80.7410000 180.1500000
 181.4530000  80.7410000 180.1500000 181.5740000  79.7690000 180.1810000
 181.0491057  80.1921082 180.8772381 180.6553487  81.0014789 182.4357628
 179.9664599  83.8973217 181.1127677 178.6743039  83.2435211 182.1800313
 178.2744407  84.3151457 180.7802770 178.4639448  80.2400218 180.7127150
 177.0015256  81.2682270 180.7310774 178.1865857  81.3745068 182.0796063
 183.0459904  81.4344292 178.1019391 184.5301579  80.6783141 178.7467570
 183.2193253  81.6707113 180.6083684 183.2157374  79.9204533 180.7875830
 181.1486078  81.6725210 180.1500000 182.4240000  78.3160000 180.3220000
 178.9430000  83.9360000 189.1190000 179.3810000  83.6140000 187.8010000
 180.8976870  83.7470422 187.7330128 181.5038325  82.8464892 188.6572661
 177.9730000  83.8190000 189.0990000 178.9011500  84.2970745 187.0939185
 179.0724998  82.5858257 187.5879032 181.2137786  84.7599699 188.0040657
 181.2658866  83.5140970 186.7304997 181.0692520  83.0313657 189.5128065
 180.8750000  81.1520000 194.5420000 178.8210000  82.2990000 193.4260000
 178.9319214  83.5321885 194.3209740 178.0568707  81.2138749 194.1707234
 183.4368790  80.6215784 191.8897728 182.8702276  80.7410000 193.3150000
 181.4530000  80.7410000 193.3150000 181.5740000  79.7690000 193.3460000
 181.0491057  80.1921082 194.0422381 180.6553487  81.0014789 195.6007628
 179.9664599  83.8973217 194.2777677 178.6743039  83.2435211 195.3450313
 178.2744407  84.3151457 193.9452770 178.4639448  80.2400218 193.8777150
 177.0015256  81.2682270 193.8960774 178.1865857  81.3745068 195.2446063
 183.0459904  81.4344292 191.2669391 184.5301579  80.6783141 191.9117570
 183.2193253  81.6707113 193.7733684 183.2157374  79.9204533 193.9525830
 181.1486078  81.6725210 193.3150000 182.4240000  78.3160000 193.4870000
 178.9430000  83.9360000 202.2840000 179.3810000  83.6140000 200.9660000
 180.8976870  83.7470422 200.8980128 181.5038325  82.8464892 201.8222661
 177.9730000  83.8190000 202.2640000 178.9011500  84.2970745 200.2589185
 179.0724998  82.5858257 200.7529032 181.2137786  84.7599699 201.1690657
 181.2658866  83.5140970 199.8954997 181.0692520  83.0313657 202.6778065
 180.8750000  88.4690000  76.0550000 178.8210000  89.6160000  74.9390000
 178.9319214  90.8491885  75.8339740 178.0568707  88.5308749  75.6837234
 183.4368790  87.9385784  73.4027728 182.8702276  88.0580000  74.8280000
 181.4530000  88.0580000  74.8280000 181.5740000  87.0860000  74.8590000
 181.0491057  87.5091082  75.5552381 180.6553487  88.3184789  77.1137628
 179.9664599  91.2143217  75.7907677 178.6743039  90.5605211  76.8580313
 178.2744407  91.6321457  75.4582770 178.4639448  87.5570218  75.3907150
 177.0015256  88.5852270  75.4090774 178.1865857  88.6915068  76.7576063
 183.0459904  88.7514292  72.7799391 184.5301579  87.9953141  73.4247570
 183.2193253  88.9877113  75.2863684 183.2157374  87.2374533  75.4655830
 181.1486078  88.9895210  74.8280000 182.4240000  85.6330000  75.0000000
 178.9430000  91.2530000  83.7970000 179.3810000  90.9310000  82.4790000
 180.8976870  91.0640422  82.4110128 181.5038325  90.1634892  83.3352661
 177.9730000  91.1360000  83.7770000 178.9011500  91.6140745  81.7719185
 179.0724998  89.9028257  82.2659032 181.2137786  92.0769699  82.6820657
 181.2658866  90.8310970  81.4084997 181.0692520  90.3483657  84.1908065
 180.8750000  88.4690000  89.2200000 178.8210000  89.6160000  88.1040000
 178.9319214  90.8491885  88.9989740 178.0568707  88.5308749  88.8487234
 183.4368790  87.9385784  86.5677728 182.8702276  88.0580000  87.9930000
 181.4530000  88.0580000  87.9930000 181.5740000  87.0860000  88.0240000
 181.0491057  87.5091082  88.7202381 180.6553487  88.3184789  90.2787628
 179.9664599  91.2143217  88.9557677 178.6743039  90.5605211  90.0230313
 178.2744407  91.6321457  88.6232770 178.4639448  87.5570218  88.5557150
 177.0015256  88.5852270  88.5740774 178.1865857  88.6915068  89.9226063
 183.0459904  88.7514292  85.9449391 184.5301579  87.9953141  86.5897570
 183.2193253  88.9877113  88.4513684 183.2157374  87.2374533  88.6305830
 181.1486078  88.9895210  87.9930000 182.4240000  85.6330000  88.1650000
 178.9430000  91.2530000  96.9620000 179.3810000  90.9310000  95.6440000
 180.8976870  91.0640422  95.5760128 181.5038325  90.1634892  96.5002661
 177.9730000  91.1360000  96.9420000 178.9011500  91.6140745  94.9369185
 179.0724998  89.9028257  95.4309032 181.2137786  92.0769699  95.8470657
 181.2658866  90.8310970  94.5734997 181.0692520  90.3483657  97.3558065
 180.8750000  88.4690000 102.3850000 178.8210000  89.6160000 101.2690000
 178.9319214  90.8491885 102.1639740 178.0568707  88.5308749 102.0137234
 183.4368790  87.9385784  99.7327728 182.8702276  88.0580000 101.1580000
 181.4530000  88.0580000 101.1580000 181.5740000  87.0860000 101.1890000
 181.0491057  87.5091082 101.8852381 180.6553487  88.3184789 103.4437628
 179.9664599  91.2143217 102.1207677 178.6743039  90.5605211 103.1880313
 178.2744407  91.6321457 101.7882770 178.4639448  87.5570218 101.7207150
 177.0015256  88.5852270 101.7390774 178.1865857  88.6915068 103.0876063
 183.0459904  88.7514292  99.1099391 184.5301579  87.9953141  99.7547570
 183.2193253  88.9877113 101.6163684 183.2157374  87.2374533 101.7955830
 181.1486078  88.9895210 101.1580000 182.4240000  85.6330000 101.3300000
 178.9430000  91.2530000 110.1270000 179.3810000  90.9310000 108.8090000
 180.8976870  91.0640422 108.7410128 181.5038325  90.1634892 109.6652661
 177.9730000  91.1360000 110.1070000 178.9011500  91.6140745 108.1019185
 179.0724998  89.9028257 108.5959032 181.2137786  92.0769699 109.0120657
 181.2658866  90.8310970 107.7384997 181.0692520  90.3483657 110.5208065
 180.8750000  88.4690000 115.5510000 178.8210000  89.6160000 114.4350000
 178.9319214  90.8491885 115.3299740 178.0568707  88.5308749 115.1797234
 183.4368790  87.9385784 112.8987728 182.8702276  88.0580000 114.3240000
 181.4530000  88.0580000 114.3240000 181.5740000  87.0860000 114.3550000
 181.0491057  87.5091082 115.0512381 180.6553487  88.3184789 116.6097628
 179.9664599  91.2143217 115.2867677 178.6743039  90.5605211 116.3540313
 178.2744407  91.6321457 114.9542770 178.4639448  87.5570218 114.8867150
 177.0015256  88.5852270 114.9050774 178.1865857  88.6915068 116.2536063
 183.0459904  88.7514292 112.2759391 184.5301579  87.9953141 112.9207570
 183.2193253  88.9877113 114.7823684 183.2157374  87.2374533 114.9615830
 181.1486078  88.9895210 114.3240000 182.4240000  85.6330000 114.4960000
 178.9430000  91.2530000 123.2930000 179.3810000  90.9310000 121.9750000
 180.8976870  91.0640422 121.9070128 181.5038325  90.1634892 122.8312661
 177.9730000  91.1360000 123.2730000 178.9011500  91.6140745 121.2679185
 179.0724998  89.9028257 121.7619032 181.2137786  92.0769699 122.1780657
 181.2658866  90.8310970 120.9044997 181.0692520  90.3483657 123.6868065
 180.8750000  88.4690000 128.7160000 178.8210000  89.6160000 127.6000000
 178.9319214  90.8491885 128.4949740 178.0568707  88.5308749 128.3447234
 183.4368790  87.9385784 126.0637728 182.8702276  88.0580000 127.4890000
 181.4530000  88.0580000 127.4890000 181.5740000  87.0860000 127.5200000
 181.0491057  87.5091082 128.2162381 180.6553487  88.3184789 129.7747628
 179.9664599  91.2143217 128.4517677 178.6743039  90.5605211 129.5190313
 178.2744407  91.6321457 128.1192770 178.4639448  87.5570218 128.0517150
 177.0015256  88.5852270 128.0700774 178.1865857  88.6915068 129.4186063
 183.0459904  88.7514292 125.4409391 184.5301579  87.9953141 126.0857570
 183.2193253  88.9877113 127.9473684 183.2157374  87.2374533 128.1265830
 181.1486078  88.9895210 127.4890000 182.4240000  85.6330000 127.6610000
 178.9430000  91.2530000 136.4580000 179.3810000  90.9310000 135.1400000
 180.8976870  91.0640422 135.0720128 181.5038325  90.1634892 135.9962661
 177.9730000  91.1360000 136.4380000 178.9011500  91.6140745 134.4329185
 179.0724998  89.9028257 134.9269032 181.2137786  92.0769699 135.3430657
 181.2658866  90.8310970 134.0694997 181.0692520  90.3483657 136.8518065
 180.8750000  88.4690000 141.8810000 178.8210000  89.6160000 140.7650000
 178.9319214  90.8491885 141.6599740 178.0568707  88.5308749 141.5097234
 183.4368790  87.9385784 139.2287728 182.8702276  88.0580000 140.6540000
 181.4530000  88.0580000 140.6540000 181.5740000  87.0860000 140.6850000
 181.0491057  87.5091082 141.3812381 180.6553487  88.3184789 142.9397628
 179.9664599  91.2143217 141.6167677 178.6743039  90.5605211 142.6840313
 178.2744407  91.6321457 141.2842770 178.4639448  87.5570218 141.2167150
 177.0015256  88.5852270 141.2350774 178.1865857  88.6915068 142.5836063
 183.0459904  88.7514292 138.6059391 184.5301579  87.9953141 139.2507570
 183.2193253  88.9877113 141.1123684 183.2157374  87.2374533 141.2915830
 181.1486078  88.9895210 140.6540000 182.4240000  85.6330000 140.8260000
 178.9430000  91.2530000 149.6230000 179.3810000  90.9310000 148.3050000
 180.8976870  91.0640422 148.2370128 181.5038325  90.1634892 149.1612661
 177.9730000  91.1360000 149.6030000 178.9011500  91.6140745 147.5979185
 179.0724998  89.9028257 148.0919032 181.2137786  92.0769699 148.5080657
 181.2658866  90.8310970 147.2344997 181.0692520  90.3483657 150.0168065
 180.8750000  88.4690000 155.0460000 178.8210000  89.6160000 153.9300000
 178.9319214  90.8491885 154.8249740 178.0568707  88.5308749 154.6747234
 183.4368790  87.9385784 152.3937728 182.8702276  88.0580000 153.8190000
 181.4530000  88.0580000 153.8190000 181.5740000  87.0860000 153.8500000
 181.0491057  87.5091082 154.5462381 180.6553487  88.3184789 156.1047628
 179.9664599  91.2143217 154.7817677 178.6743039  90.5605211 155.8490313
 178.2744407  91.6321457 154.4492770 178.4639448  87.5570218 154.3817150
 177.0015256  88.5852270 154.4000774 178.1865857  88.6915068 155.7486063
 183.0459904  88.7514292 151.7709391 184.5301579  87.9953141 152.4157570
 183.2193253  88.9877113 154.2773684 183.2157374  87.2374533 154.4565830
 181.1486078  88.9895210 153.8190000 182.4240000  85.6330000 153.9910000
 178.9430000  91.2530000 162.7880000 179.3810000  90.9310000 161.4700000
 180.8976870  91.0640422 161.4020128 181.5038325  90.1634892 162.3262661
 177.9730000  91.1360000 162.7680000 178.9011500  91.6140745 160.7629185
 179.0724998  89.9028257 161.2569032 181.2137786  92.0769699 161.6730657
 181.2658866  90.8310970 160.3994997 181.0692520  90.3483657 163.1818065
 180.8750000  88.4690000 168.2110000 178.8210000  89.6160000 167.0950000
 178.9319214  90.8491885 167.9899740 178.0568707  88.5308749 167.8397234
 183.4368790  87.9385784 165.5587728 182.8702276  88.0580000 166.9840000
 181.4530000  88.0580000 166.9840000 181.5740000  87.0860000 167.0150000
 181.0491057  87.5091082 167.7112381 180.6553487  88.3184789 169.2697628
 179.9664599  91.2143217 167.9467677 178.6743039  90.5605211 169.0140313
 178.2744407  91.6321457 167.6142770 178.4639448  87.5570218 167.5467150
 177.0015256  88.5852270 167.5650774 178.1865857  88.6915068 168.9136063
 183.0459904  88.7514292 164.9359391 184.5301579  87.9953141 165.5807570
 183.2193253  88.9877113 167.4423684 183.2157374  87.2374533 167.6215830
 181.1486078  88.9895210 166.9840000 182.4240000  85.6330000 167.1560000
 178.9430000  91.2530000 175.9530000 179.3810000  90.9310000 174.6350000
 180.8976870  91.0640422 174.5670128 181.5038325  90.1634892 175.4912661
 177.9730000  91.1360000 175.9330000 178.9011500  91.6140745 173.9279185
 179.0724998  89.9028257 174.4219032 181.2137786  92.0769699 174.8380657
 181.2658866  90.8310970 173.5644997 181.0692520  90.3483657 176.3468065
 180.8750000  88.4690000 181.3770000 178.8210000  89.6160000 180.2610000
 178.9319214  90.8491885 181.1559740 178.0568707  88.5308749 181.0057234
 183.4368790  87.9385784 178.7247728 182.8702276  88.0580000 180.1500000
 181.4530000  88.0580000 180.1500000 181.5740000  87.0860000 180.1810000
 181.0491057  87.5091082 180.8772381 180.6553487  88.3184789 182.4357628
 179.9664599  91.2143217 181.1127677 178.6743039  90.5605211 182.1800313
 178.2744407  91.6321457 180.7802770 178.4639448  87.5570218 180.7127150
 177.0015256  88.5852270 180.7310774 178.1865857  88.6915068 182.0796063
 183.0459904  88.7514292 178.1019391 184.5301579  87.9953141 178.7467570
 183.2193253  88.9877113 180.6083684 183.2157374  87.2374533 180.7875830
 181.1486078  88.9895210 180.1500000 182.4240000  85.6330000 180.3220000
 178.9430000  91.2530000 189.1190000 179.3810000  90.9310000 187.8010000
 180.8976870  91.0640422 187.7330128 181.5038325  90.1634892 188.6572661
 177.9730000  91.1360000 189.0990000 178.9011500  91.6140745 187.0939185
 179.0724998  89.9028257 187.5879032 181.2137786  92.0769699 188.0040657
 181.2658866  90.8310970 186.7304997 181.0692520  90.3483657 189.5128065
 180.8750000  88.4690000 194.5420000 178.8210000  89.6160000 193.4260000
 178.9319214  90.8491885 194.3209740 178.0568707  88.5308749 194.1707234
 183.4368790  87.9385784 191.8897728 182.8702276  88.0580000 193.3150000
 181.4530000  88.0580000 193.3150000 181.5740000  87.0860000 193.3460000
 181.0491057  87.5091082 194.0422381 180.6553487  88.3184789 195.6007628
 179.9664599  91.2143217 194.2777677 178.6743039  90.5605211 195.3450313
 178.2744407  91.6321457 193.9452770 178.4639448  87.5570218 193.8777150
 177.0015256  88.5852270 193.8960774 178.1865857  88.6915068 195.2446063
 183.0459904  88.7514292 191.2669391 184.5301579  87.9953141 191.9117570
 183.2193253  88.9877113 193.7733684 183.2157374  87.2374533 193.9525830
 181.1486078  88.9895210 193.3150000 182.4240000  85.6330000 193.4870000
 178.9430000  91.2530000 202.2840000 179.3810000  90.9310000 200.9660000
 180.8976870  91.0640422 200.8980128 181.5038325  90.1634892 201.8222661
 177.9730000  91.1360000 202.2640000 178.9011500  91.6140745 200.2589185
 179.0724998  89.9028257 200.7529032 181.2137786  92.0769699 201.1690657
 181.2658866  90.8310970 199.8954997 181.0692520  90.3483657 202.6778065
 180.8750000  95.7850000  76.0550000 178.8210000  96.9320000  74.9390000
 178.9319214  98.1651885  75.8339740 178.0568707  95.8468749  75.6837234
 183.4368790  95.2545784  73.4027728 182.8702276  95.3740000  74.8280000
 181.4530000  95.3740000  74.8280000 181.5740000  94.4020000  74.8590000
 181.0491057  94.8251082  75.5552381 180.6553487  95.6344789  77.1137628
 179.9664599  98.5303217  75.7907677 178.6743039  97.8765211  76.8580313
 178.2744407  98.9481457  75.4582770 178.4639448  94.8730218  75.3907150
 177.0015256  95.9012270  75.4090774 178.1865857  96.0075068  76.7576063
 183.0459904  96.0674292  72.7799391 184.5301579  95.3113141  73.4247570
 183.2193253  96.3037113  75.2863684 183.2157374  94.5534533  75.4655830
 181.1486078  96.3055210  74.8280000 182.4240000  92.9490000  75.0000000
 178.9430000  98.5690000  83.7970000 179.3810000  98.2470000  82.4790000
 180.8976870  98.3800422  82.4110128 181.5038325  97.4794892  83.3352661
 177.9730000  98.4520000  83.7770000 178.9011500  98.9300745  81.7719185
 179.0724998  97.2188257  82.2659032 181.2137786  99.3929699  82.6820657
 181.2658866  98.1470970  81.4084997 181.0692520  97.6643657  84.1908065
 180.8750000  95.7850000  89.2200000 178.8210000  96.9320000  88.1040000
 178.9319214  98.1651885  88.9989740 178.0568707  95.8468749  88.8487234
 183.4368790  95.2545784  86.5677728 182.8702276  95.3740000  87.9930000
 181.4530000  95.3740000  87.9930000 181.5740000  94.4020000  88.0240000
 181.0491057  94.8251082  88.7202381 180.6553487  95.6344789  90.2787628
 179.9664599  98.5303217  88.9557677 178.6743039  97.8765211  90.0230313
 178.2744407  98.9481457  88.6232770 178.4639448  94.8730218  88.5557150
 177.0015256  95.9012270  88.5740774 178.1865857  96.0075068  89.9226063
 183.0459904  96.0674292  85.9449391 184.5301579  95.3113141  86.5897570
 183.2193253  96.3037113  88.4513684 183.2157374  94.5534533  88.6305830
 181.1486078  96.3055210  87.9930000 182.4240000  92.9490000  88.1650000
 178.9430000  98.5690000  96.9620000 179.3810000  98.2470000  95.6440000
 180.8976870  98.3800422  95.5760128 181.5038325  97.4794892  96.5002661
 177.9730000  98.4520000  96.9420000 178.9011500  98.9300745  94.9369185
 179.0724998  97.2188257  95.4309032 181.2137786  99.3929699  95.8470657
 181.2658866  98.1470970  94.5734997 181.0692520  97.6643657  97.3558065
 180.8750000  95.7850000 102.3850000 178.8210000  96.9320000 101.2690000
 178.9319214  98.1651885 102.1639740 178.0568707  95.8468749 102.0137234
 183.4368790  95.2545784  99.7327728 182.8702276  95.3740000 101.1580000
 181.4530000  95.3740000 101.1580000 181.5740000  94.4020000 101.1890000
 181.0491057  94.8251082 101.8852381 180.6553487  95.6344789 103.4437628
 179.9664599  98.5303217 102.1207677 178.6743039  97.8765211 103.1880313
 178.2744407  98.9481457 101.7882770 178.4639448  94.8730218 101.7207150
 177.0015256  95.9012270 101.7390774 178.1865857  96.0075068 103.0876063
 183.0459904  96.0674292  99.1099391 184.5301579  95.3113141  99.7547570
 183.2193253  96.3037113 101.6163684 183.2157374  94.5534533 101.7955830
 181.1486078  96.3055210 101.1580000 182.4240000  92.9490000 101.3300000
 178.9430000  98.5690000 110.1270000 179.3810000  98.2470000 108.8090000
 180.8976870  98.3800422 108.7410128 181.5038325  97.4794892 109.6652661
 177.9730000  98.4520000 110.1070000 178.9011500  98.9300745 108.1019185
 179.0724998  97.2188257 108.5959032 181.2137786  99.3929699 109.0120657
 181.2658866  98.1470970 107.7384997 181.0692520  97.6643657 110.5208065
 180.8750000  95.7850000 115.5510000 178.8210000  96.9320000 114.4350000
 178.9319214  98.1651885 115.3299740 178.0568707  95.8468749 115.1797234
 183.4368790  95.2545784 112.8987728 182.8702276  95.3740000 114.3240000
 181.4530000  95.3740000 114.3240000 181.5740000  94.4020000 114.3550000
 181.0491057  94.8251082 115.0512381 180.6553487  95.6344789 116.6097628
 179.9664599  98.5303217 115.2867677 178.6743039  97.8765211 116.3540313
 178.2744407  98.9481457 114.9542770 178.4639448  94.8730218 114.8867150
 177.0015256  95.9012270 114.9050774 178.1865857  96.0075068 116.2536063
 183.0459904  96.0674292 112.2759391 184.5301579  95.3113141 112.9207570
 183.2193253  96.3037113 114.7823684 183.2157374  94.5534533 114.9615830
 181.1486078  96.3055210 114.3240000 182.4240000  92.9490000 114.4960000
 178.9430000  98.5690000 123.2930000 179.3810000  98.2470000 121.9750000
 180.8976870  98.3800422 121.9070128 181.5038325  97.4794892 122.8312661
 177.9730000  98.4520000 123.2730000 178.9011500  98.9300745 121.2679185
 179.0724998  97.2188257 121.7619032 181.2137786  99.3929699 122.1780657
 181.2658866  98.1470970 120.9044997 181.0692520  97.6643657 123.6868065
 180.8750000  95.7850000 128.7160000 178.8210000  96.9320000 127.6000000
 178.9319214  98.1651885 128.4949740 178.0568707  95.8468749 128.3447234
 183.4368790  95.2545784 126.0637728 182.8702276  95.3740000 127.4890000
 181.4530000  95.3740000 127.4890000 181.5740000  94.4020000 127.5200000
 181.0491057  94.8251082 128.2162381 180.6553487  95.6344789 129.7747628
 179.9664599  98.5303217 128.4517677 178.6743039  97.8765211 129.5190313
 178.2744407  98.9481457 128.1192770 178.4639448  94.8730218 128.0517150
 177.0015256  95.9012270 128.0700774 178.1865857  96.0075068 129.4186063
 183.0459904  96.0674292 125.4409391 184.5301579  95.3113141 126.0857570
 183.2193253  96.3037113 127.9473684 183.2157374  94.5534533 128.1265830
 181.1486078  96.3055210 127.4890000 182.4240000  92.9490000 127.6610000
 178.9430000  98.5690000 136.4580000 179.3810000  98.2470000 135.1400000
 180.8976870  98.3800422 135.0720128 181.5038325  97.4794892 135.9962661
 177.9730000  98.4520000 136.4380000 178.9011500  98.9300745 134.4329185
 179.0724998  97.2188257 134.9269032 181.2137786  99.3929699 135.3430657
 181.2658866  98.1470970 134.0694997 181.0692520  97.6643657 136.8518065
 180.8750000  95.7850000 141.8810000 178.8210000  96.9320000 140.7650000
 178.9319214  98.1651885 141.6599740 178.0568707  95.8468749 141.5097234
 183.4368790  95.2545784 139.2287728 182.8702276  95.3740000 140.6540000
 181.4530000  95.3740000 140.6540000 181.5740000  94.4020000 140.6850000
 181.0491057  94.8251082 141.3812381 180.6553487  95.6344789 142.9397628
 179.9664599  98.5303217 141.6167677 178.6743039  97.8765211 142.6840313
 178.2744407  98.9481457 141.2842770 178.4639448  94.8730218 141.2167150
 177.0015256  95.9012270 141.2350774 178.1865857  96.0075068 142.5836063
 183.0459904  96.0674292 138.6059391 184.5301579  95.3113141 139.2507570
 183.2193253  96.3037113 141.1123684 183.2157374  94.5534533 141.2915830
 181.1486078  96.3055210 140.6540000 182.4240000  92.9490000 140.8260000
 178.9430000  98.5690000 149.6230000 179.3810000  98.2470000 148.3050000
 180.8976870  98.3800422 148.2370128 181.5038325  97.4794892 149.1612661
 177.9730000  98.4520000 149.6030000 178.9011500  98.9300745 147.5979185
 179.0724998  97.2188257 148.0919032 181.2137786  99.3929699 148.5080657
 181.2658866  98.1470970 147.2344997 181.0692520  97.6643657 150.0168065
 180.8750000  95.7850000 155.0460000 178.8210000  96.9320000 153.9300000
 178.9319214  98.1651885 154.8249740 178.0568707  95.8468749 154.6747234
 183.4368790  95.2545784 152.3937728 182.8702276  95.3740000 153.8190000
 181.4530000  95.3740000 153.8190000 181.5740000  94.4020000 153.8500000
 181.0491057  94.8251082 154.5462381 180.6553487  95.6344789 156.1047628
 179.9664599  98.5303217 154.7817677 178.6743039  97.8765211 155.8490313
 178.2744407  98.9481457 154.4492770 178.4639448  94.8730218 154.3817150
 177.0015256  95.9012270 154.4000774 178.1865857  96.0075068 155.7486063
 183.0459904  96.0674292 151.7709391 184.5301579  95.3113141 152.4157570
 183.2193253  96.3037113 154.2773684 183.2157374  94.5534533 154.4565830
 181.1486078  96.3055210 153.8190000 182.4240000  92.9490000 153.9910000
 178.9430000  98.5690000 162.7880000 179.3810000  98.2470000 161.4700000
 180.8976870  98.3800422 161.4020128 181.5038325  97.4794892 162.3262661
 177.9730000  98.4520000 162.7680000 178.9011500  98.9300745 160.7629185
 179.0724998  97.2188257 161.2569032 181.2137786  99.3929699 161.6730657
 181.2658866  98.1470970 160.3994997 181.0692520  97.6643657 163.1818065
 180.8750000  95.7850000 168.2110000 178.8210000  96.9320000 167.0950000
 178.9319214  98.1651885 167.9899740 178.0568707  95.8468749 167.8397234
 183.4368790  95.2545784 165.5587728 182.8702276  95.3740000 166.9840000
 181.4530000  95.3740000 166.9840000 181.5740000  94.4020000 167.0150000
 181.0491057  94.8251082 167.7112381 180.6553487  95.6344789 169.2697628
 179.9664599  98.5303217 167.9467677 178.6743039  97.8765211 169.0140313
 178.2744407  98.9481457 167.6142770 178.4639448  94.8730218 167.5467150
 177.0015256  95.9012270 167.5650774 178.1865857  96.0075068 168.9136063
 183.0459904  96.0674292 164.9359391 184.5301579  95.3113141 165.5807570
 183.2193253  96.3037113 167.4423684 183.2157374  94.5534533 167.6215830
 181.1486078  96.3055210 166.9840000 182.4240000  92.9490000 167.1560000
 178.9430000  98.5690000 175.9530000 179.3810000  98.2470000 174.6350000
 180.8976870  98.3800422 174.5670128 181.5038325  97.4794892 175.4912661
 177.9730000  98.4520000 175.9330000 178.9011500  98.9300745 173.9279185
 179.0724998  97.2188257 174.4219032 181.2137786  99.3929699 174.8380657
 181.2658866  98.1470970 173.5644997 181.0692520  97.6643657 176.3468065
 180.8750000  95.7850000 181.3770000 178.8210000  96.9320000 180.2610000
 178.9319214  98.1651885 181.1559740 178.0568707  95.8468749 181.0057234
 183.4368790  95.2545784 178.7247728 182.8702276  95.3740000 180.1500000
 181.4530000  95.3740000 180.1500000 181.5740000  94.4020000 180.1810000
 181.0491057  94.8251082 180.8772381 180.6553487  95.6344789 182.4357628
 179.9664599  98.5303217 181.1127677 178.6743039  97.8765211 182.1800313
 178.2744407  98.9481457 180.7802770 178.4639448  94.8730218 180.7127150
 177.0015256  95.9012270 180.7310774 178.1865857  96.0075068 182.0796063
 183.0459904  96.0674292 178.1019391 184.5301579  95.3113141 178.7467570
 183.2193253  96.3037113 180.6083684 183.2157374  94.5534533 180.7875830
 181.1486078  96.3055210 180.1500000 182.4240000  92.9490000 180.3220000
 178.9430000  98.5690000 189.1190000 179.3810000  98.2470000 187.8010000
 180.8976870  98.3800422 187.7330128 181.5038325  97.4794892 188.6572661
 177.9730000  98.4520000 189.0990000 178.9011500  98.9300745 187.0939185
 179.0724998  97.2188257 187.5879032 181.2137786  99.3929699 188.0040657
 181.2658866  98.1470970 186.7304997 181.0692520  97.6643657 189.5128065
 180.8750000  95.7850000 194.5420000 178.8210000  96.9320000 193.4260000
 178.9319214  98.1651885 194.3209740 178.0568707  95.8468749 194.1707234
 183.4368790  95.2545784 191.8897728 182.8702276  95.3740000 193.3150000
 181.4530000  95.3740000 193.3150000 181.5740000  94.4020000 193.3460000
 181.0491057  94.8251082 194.0422381 180.6553487  95.6344789 195.6007628
 179.9664599  98.5303217 194.2777677 178.6743039  97.8765211 195.3450313
 178.2744407  98.9481457 193.9452770 178.4639448  94.8730218 193.8777150
 177.0015256  95.9012270 193.8960774 178.1865857  96.0075068 195.2446063
 183.0459904  96.0674292 191.2669391 184.5301579  95.3113141 191.9117570
 183.2193253  96.3037113 193.7733684 183.2157374  94.5534533 193.9525830
 181.1486078  96.3055210 193.3150000 182.4240000  92.9490000 193.4870000
 178.9430000  98.5690000 202.2840000 179.3810000  98.2470000 200.9660000
 180.8976870  98.3800422 200.8980128 181.5038325  97.4794892 201.8222661
 177.9730000  98.4520000 202.2640000 178.9011500  98.9300745 200.2589185
 179.0724998  97.2188257 200.7529032 181.2137786  99.3929699 201.1690657
 181.2658866  98.1470970 199.8954997 181.0692520  97.6643657 202.6778065
 180.8750000 103.1020000  76.0550000 178.8210000 104.2490000  74.9390000
 178.9319214 105.4821885  75.8339740 178.0568707 103.1638749  75.6837234
 183.4368790 102.5715784  73.4027728 182.8702276 102.6910000  74.8280000
 181.4530000 102.6910000  74.8280000 181.5740000 101.7190000  74.8590000
 181.0491057 102.1421082  75.5552381 180.6553487 102.9514789  77.1137628
 179.9664599 105.8473217  75.7907677 178.6743039 105.1935211  76.8580313
 178.2744407 106.2651457  75.4582770 178.4639448 102.1900218  75.3907150
 177.0015256 103.2182270  75.4090774 178.1865857 103.3245068  76.7576063
 183.0459904 103.3844292  72.7799391 184.5301579 102.6283141  73.4247570
 183.2193253 103.6207113  75.2863684 183.2157374 101.8704533  75.4655830
 181.1486078 103.6225210  74.8280000 182.4240000 100.2660000  75.0000000
 178.9430000 105.8860000  83.7970000 179.3810000 105.5640000  82.4790000
 180.8976870 105.6970422  82.4110128 181.5038325 104.7964892  83.3352661
 177.9730000 105.7690000  83.7770000 178.9011500 106.2470745  81.7719185
 179.0724998 104.5358257  82.2659032 181.2137786 106.7099699  82.6820657
 181.2658866 105.4640970  81.4084997 181.0692520 104.9813657  84.1908065
 180.8750000 103.1020000  89.2200000 178.8210000 104.2490000  88.1040000
 178.9319214 105.4821885  88.9989740 178.0568707 103.1638749  88.8487234
 183.4368790 102.5715784  86.5677728 182.8702276 102.6910000  87.9930000
 181.4530000 102.6910000  87.9930000 181.5740000 101.7190000  88.0240000
 181.0491057 102.1421082  88.7202381 180.6553487 102.9514789  90.2787628
 179.9664599 105.8473217  88.9557677 178.6743039 105.1935211  90.0230313
 178.2744407 106.2651457  88.6232770 178.4639448 102.1900218  88.5557150
 177.0015256 103.2182270  88.5740774 178.1865857 103.3245068  89.9226063
 183.0459904 103.3844292  85.9449391 184.5301579 102.6283141  86.5897570
 183.2193253 103.6207113  88.4513684 183.2157374 101.8704533  88.6305830
 181.1486078 103.6225210  87.9930000 182.4240000 100.2660000  88.1650000
 178.9430000 105.8860000  96.9620000 179.3810000 105.5640000  95.6440000
 180.8976870 105.6970422  95.5760128 181.5038325 104.7964892  96.5002661
 177.9730000 105.7690000  96.9420000 178.9011500 106.2470745  94.9369185
 179.0724998 104.5358257  95.4309032 181.2137786 106.7099699  95.8470657
 181.2658866 105.4640970  94.5734997 181.0692520 104.9813657  97.3558065
 180.8750000 103.1020000 102.3850000 178.8210000 104.2490000 101.2690000
 178.9319214 105.4821885 102.1639740 178.0568707 103.1638749 102.0137234
 183.4368790 102.5715784  99.7327728 182.8702276 102.6910000 101.1580000
 181.4530000 102.6910000 101.1580000 181.5740000 101.7190000 101.1890000
 181.0491057 102.1421082 101.8852381 180.6553487 102.9514789 103.4437628
 179.9664599 105.8473217 102.1207677 178.6743039 105.1935211 103.1880313
 178.2744407 106.2651457 101.7882770 178.4639448 102.1900218 101.7207150
 177.0015256 103.2182270 101.7390774 178.1865857 103.3245068 103.0876063
 183.0459904 103.3844292  99.1099391 184.5301579 102.6283141  99.7547570
 183.2193253 103.6207113 101.6163684 183.2157374 101.8704533 101.7955830
 181.1486078 103.6225210 101.1580000 182.4240000 100.2660000 101.3300000
 178.9430000 105.8860000 110.1270000 179.3810000 105.5640000 108.8090000
 180.8976870 105.6970422 108.7410128 181.5038325 104.7964892 109.6652661
 177.9730000 105.7690000 110.1070000 178.9011500 106.2470745 108.1019185
 179.0724998 104.5358257 108.5959032 181.2137786 106.7099699 109.0120657
 181.2658866 105.4640970 107.7384997 181.0692520 104.9813657 110.5208065
 180.8750000 103.1020000 115.5510000 178.8210000 104.2490000 114.4350000
 178.9319214 105.4821885 115.3299740 178.0568707 103.1638749 115.1797234
 183.4368790 102.5715784 112.8987728 182.8702276 102.6910000 114.3240000
 181.4530000 102.6910000 114.3240000 181.5740000 101.7190000 114.3550000
 181.0491057 102.1421082 115.0512381 180.6553487 102.9514789 116.6097628
 179.9664599 105.8473217 115.2867677 178.6743039 105.1935211 116.3540313
 178.2744407 106.2651457 114.9542770 178.4639448 102.1900218 114.8867150
 177.0015256 103.2182270 114.9050774 178.1865857 103.3245068 116.2536063
 183.0459904 103.3844292 112.2759391 184.5301579 102.6283141 112.9207570
 183.2193253 103.6207113 114.7823684 183.2157374 101.8704533 114.9615830
 181.1486078 103.6225210 114.3240000 182.4240000 100.2660000 114.4960000
 178.9430000 105.8860000 123.2930000 179.3810000 105.5640000 121.9750000
 180.8976870 105.6970422 121.9070128 181.5038325 104.7964892 122.8312661
 177.9730000 105.7690000 123.2730000 178.9011500 106.2470745 121.2679185
 179.0724998 104.5358257 121.7619032 181.2137786 106.7099699 122.1780657
 181.2658866 105.4640970 120.9044997 181.0692520 104.9813657 123.6868065
 180.8750000 103.1020000 128.7160000 178.8210000 104.2490000 127.6000000
 178.9319214 105.4821885 128.4949740 178.0568707 103.1638749 128.3447234
 183.4368790 102.5715784 126.0637728 182.8702276 102.6910000 127.4890000
 181.4530000 102.6910000 127.4890000 181.5740000 101.7190000 127.5200000
 181.0491057 102.1421082 128.2162381 180.6553487 102.9514789 129.7747628
 179.9664599 105.8473217 128.4517677 178.6743039 105.1935211 129.5190313
 178.2744407 106.2651457 128.1192770 178.4639448 102.1900218 128.0517150
 177.0015256 103.2182270 128.0700774 178.1865857 103.3245068 129.4186063
 183.0459904 103.3844292 125.4409391 184.5301579 102.6283141 126.0857570
 183.2193253 103.6207113 127.9473684 183.2157374 101.8704533 128.1265830
 181.1486078 103.6225210 127.4890000 182.4240000 100.2660000 127.6610000
 178.9430000 105.8860000 136.4580000 179.3810000 105.5640000 135.1400000
 180.8976870 105.6970422 135.0720128 181.5038325 104.7964892 135.9962661
 177.9730000 105.7690000 136.4380000 178.9011500 106.2470745 134.4329185
 179.0724998 104.5358257 134.9269032 181.2137786 106.7099699 135.3430657
 181.2658866 105.4640970 134.0694997 181.0692520 104.9813657 136.8518065
 180.8750000 103.1020000 141.8810000 178.8210000 104.2490000 140.7650000
 178.9319214 105.4821885 141.6599740 178.0568707 103.1638749 141.5097234
 183.4368790 102.5715784 139.2287728 182.8702276 102.6910000 140.6540000
 181.4530000 102.6910000 140.6540000 181.5740000 101.7190000 140.6850000
 181.0491057 102.1421082 141.3812381 180.6553487 102.9514789 142.9397628
 179.9664599 105.8473217 141.6167677 178.6743039 105.1935211 142.6840313
 178.2744407 106.2651457 141.2842770 178.4639448 102.1900218 141.2167150
 177.0015256 103.2182270 141.2350774 178.1865857 103.3245068 142.5836063
 183.0459904 103.3844292 138.6059391 184.5301579 102.6283141 139.2507570
 183.2193253 103.6207113 141.1123684 183.2157374 101.8704533 141.2915830
 181.1486078 103.6225210 140.6540000 182.4240000 100.2660000 140.8260000
 178.9430000 105.8860000 149.6230000 179.3810000 105.5640000 148.3050000
 180.8976870 105.6970422 148.2370128 181.5038325 104.7964892 149.1612661
 177.9730000 105.7690000 149.6030000 178.9011500 106.2470745 147.5979185
 179.0724998 104.5358257 148.0919032 181.2137786 106.7099699 148.5080657
 181.2658866 105.4640970 147.2344997 181.0692520 104.9813657 150.0168065
 180.8750000 103.1020000 155.0460000 178.8210000 104.2490000 153.9300000
 178.9319214 105.4821885 154.8249740 178.0568707 103.1638749 154.6747234
 183.4368790 102.5715784 152.3937728 182.8702276 102.6910000 153.8190000
 181.4530000 102.6910000 153.8190000 181.5740000 101.7190000 153.8500000
 181.0491057 102.1421082 154.5462381 180.6553487 102.9514789 156.1047628
 179.9664599 105.8473217 154.7817677 178.6743039 105.1935211 155.8490313
 178.2744407 106.2651457 154.4492770 178.4639448 102.1900218 154.3817150
 177.0015256 103.2182270 154.4000774 178.1865857 103.3245068 155.7486063
 183.0459904 103.3844292 151.7709391 184.5301579 102.6283141 152.4157570
 183.2193253 103.6207113 154.2773684 183.2157374 101.8704533 154.4565830
 181.1486078 103.6225210 153.8190000 182.4240000 100.2660000 153.9910000
 178.9430000 105.8860000 162.7880000 179.3810000 105.5640000 161.4700000
 180.8976870 105.6970422 161.4020128 181.5038325 104.7964892 162.3262661
 177.9730000 105.7690000 162.7680000 178.9011500 106.2470745 160.7629185
 179.0724998 104.5358257 161.2569032 181.2137786 106.7099699 161.6730657
 181.2658866 105.4640970 160.3994997 181.0692520 104.9813657 163.1818065
 180.8750000 103.1020000 168.2110000 178.8210000 104.2490000 167.0950000
 178.9319214 105.4821885 167.9899740 178.0568707 103.1638749 167.8397234
 183.4368790 102.5715784 165.5587728 182.8702276 102.6910000 166.9840000
 181.4530000 102.6910000 166.9840000 181.5740000 101.7190000 167.0150000
 181.0491057 102.1421082 167.7112381 180.6553487 102.9514789 169.2697628
 179.9664599 105.8473217 167.9467677 178.6743039 105.1935211 169.0140313
 178.2744407 106.2651457 167.6142770 178.4639448 102.1900218 167.5467150
 177.0015256 103.2182270 167.5650774 178.1865857 103.3245068 168.9136063
 183.0459904 103.3844292 164.9359391 184.5301579 102.6283141 165.5807570
 183.2193253 103.6207113 167.4423684 183.2157374 101.8704533 167.6215830
 181.1486078 103.6225210 166.9840000 182.4240000 100.2660000 167.1560000
 178.9430000 105.8860000 175.9530000 179.3810000 105.5640000 174.6350000
 180.8976870 105.6970422 174.5670128 181.5038325 104.7964892 175.4912661
 177.9730000 105.7690000 175.9330000 178.9011500 106.2470745 173.9279185
 179.0724998 104.5358257 174.4219032 181.2137786 106.7099699 174.8380657
 181.2658866 105.4640970 173.5644997 181.0692520 104.9813657 176.3468065
 180.8750000 103.1020000 181.3770000 178.8210000 104.2490000 180.2610000
 178.9319214 105.4821885 181.1559740 178.0568707 103.1638749 181.0057234
 183.4368790 102.5715784 178.7247728 182.8702276 102.6910000 180.1500000
 181.4530000 102.6910000 180.1500000 181.5740000 101.7190000 180.1810000
 181.0491057 102.1421082 180.8772381 180.6553487 102.9514789 182.4357628
 179.9664599 105.8473217 181.1127677 178.6743039 105.1935211 182.1800313
 178.2744407 106.2651457 180.7802770 178.4639448 102.1900218 180.7127150
 177.0015256 103.2182270 180.7310774 178.1865857 103.3245068 182.0796063
 183.0459904 103.3844292 178.1019391 184.5301579 102.6283141 178.7467570
 183.2193253 103.6207113 180.6083684 183.2157374 101.8704533 180.7875830
 181.1486078 103.6225210 180.1500000 182.4240000 100.2660000 180.3220000
 178.9430000 105.8860000 189.1190000 179.3810000 105.5640000 187.8010000
 180.8976870 105.6970422 187.7330128 181.5038325 104.7964892 188.6572661
 177.9730000 105.7690000 189.0990000 178.9011500 106.2470745 187.0939185
 179.0724998 104.5358257 187.5879032 181.2137786 106.7099699 188.0040657
 181.2658866 105.4640970 186.7304997 181.0692520 104.9813657 189.5128065
 180.8750000 103.1020000 194.5420000 178.8210000 104.2490000 193.4260000
 178.9319214 105.4821885 194.3209740 178.0568707 103.1638749 194.1707234
 183.4368790 102.5715784 191.8897728 182.8702276 102.6910000 193.3150000
 181.4530000 102.6910000 193.3150000 181.5740000 101.7190000 193.3460000
 181.0491057 102.1421082 194.0422381 180.6553487 102.9514789 195.6007628
 179.9664599 105.8473217 194.2777677 178.6743039 105.1935211 195.3450313
 178.2744407 106.2651457 193.9452770 178.4639448 102.1900218 193.8777150
 177.0015256 103.2182270 193.8960774 178.1865857 103.3245068 195.2446063
 183.0459904 103.3844292 191.2669391 184.5301579 102.6283141 191.9117570
 183.2193253 103.6207113 193.7733684 183.2157374 101.8704533 193.9525830
 181.1486078 103.6225210 193.3150000 182.4240000 100.2660000 193.4870000
 178.9430000 105.8860000 202.2840000 179.3810000 105.5640000 200.9660000
 180.8976870 105.6970422 200.8980128 181.5038325 104.7964892 201.8222661
 177.9730000 105.7690000 202.2640000 178.9011500 106.2470745 200.2589185
 179.0724998 104.5358257 200.7529032 181.2137786 106.7099699 201.1690657
 181.2658866 105.4640970 199.8954997 181.0692520 104.9813657 202.6778065
 180.8750000 110.4180000  76.0550000 178.8210000 111.5650000  74.9390000
 178.9319214 112.7981885  75.8339740 178.0568707 110.4798749  75.6837234
 183.4368790 109.8875784  73.4027728 182.8702276 110.0070000  74.8280000
 181.4530000 110.0070000  74.8280000 181.5740000 109.0350000  74.8590000
 181.0491057 109.4581082  75.5552381 180.6553487 110.2674789  77.1137628
 179.9664599 113.1633217  75.7907677 178.6743039 112.5095211  76.8580313
 178.2744407 113.5811457  75.4582770 178.4639448 109.5060218  75.3907150
 177.0015256 110.5342270  75.4090774 178.1865857 110.6405068  76.7576063
 183.0459904 110.7004292  72.7799391 184.5301579 109.9443141  73.4247570
 183.2193253 110.9367113  75.2863684 183.2157374 109.1864533  75.4655830
 181.1486078 110.9385210  74.8280000 182.4240000 107.5820000  75.0000000
 178.9430000 113.2020000  83.7970000 179.3810000 112.8800000  82.4790000
 180.8976870 113.0130422  82.4110128 181.5038325 112.1124892  83.3352661
 177.9730000 113.0850000  83.7770000 178.9011500 113.5630745  81.7719185
 179.0724998 111.8518257  82.2659032 181.2137786 114.0259699  82.6820657
 181.2658866 112.7800970  81.4084997 181.0692520 112.2973657  84.1908065
 180.8750000 110.4180000  89.2200000 178.8210000 111.5650000  88.1040000
 178.9319214 112.7981885  88.9989740 178.0568707 110.4798749  88.8487234
 183.4368790 109.8875784  86.5677728 182.8702276 110.0070000  87.9930000
 181.4530000 110.0070000  87.9930000 181.5740000 109.0350000  88.0240000
 181.0491057 109.4581082  88.7202381 180.6553487 110.2674789  90.2787628
 179.9664599 113.1633217  88.9557677 178.6743039 112.5095211  90.0230313
 178.2744407 113.5811457  88.6232770 178.4639448 109.5060218  88.5557150
 177.0015256 110.5342270  88.5740774 178.1865857 110.6405068  89.9226063
 183.0459904 110.7004292  85.9449391 184.5301579 109.9443141  86.5897570
 183.2193253 110.9367113  88.4513684 183.2157374 109.1864533  88.6305830
 181.1486078 110.9385210  87.9930000 182.4240000 107.5820000  88.1650000
 178.9430000 113.2020000  96.9620000 179.3810000 112.8800000  95.6440000
 180.8976870 113.0130422  95.5760128 181.5038325 112.1124892  96.5002661
 177.9730000 113.0850000  96.9420000 178.9011500 113.5630745  94.9369185
 179.0724998 111.8518257  95.4309032 181.2137786 114.0259699  95.8470657
 181.2658866 112.7800970  94.5734997 181.0692520 112.2973657  97.3558065
 180.8750000 110.4180000 102.3850000 178.8210000 111.5650000 101.2690000
 178.9319214 112.7981885 102.1639740 178.0568707 110.4798749 102.0137234
 183.4368790 109.8875784  99.7327728 182.8702276 110.0070000 101.1580000
 181.4530000 110.0070000 101.1580000 181.5740000 109.0350000 101.1890000
 181.0491057 109.4581082 101.8852381 180.6553487 110.2674789 103.4437628
 179.9664599 113.1633217 102.1207677 178.6743039 112.5095211 103.1880313
 178.2744407 113.5811457 101.7882770 178.4639448 109.5060218 101.7207150
 177.0015256 110.5342270 101.7390774 178.1865857 110.6405068 103.0876063
 183.0459904 110.7004292  99.1099391 184.5301579 109.9443141  99.7547570
 183.2193253 110.9367113 101.6163684 183.2157374 109.1864533 101.7955830
 181.1486078 110.9385210 101.1580000 182.4240000 107.5820000 101.3300000
 178.9430000 113.2020000 110.1270000 179.3810000 112.8800000 108.8090000
 180.8976870 113.0130422 108.7410128 181.5038325 112.1124892 109.6652661
 177.9730000 113.0850000 110.1070000 178.9011500 113.5630745 108.1019185
 179.0724998 111.8518257 108.5959032 181.2137786 114.0259699 109.0120657
 181.2658866 112.7800970 107.7384997 181.0692520 112.2973657 110.5208065
 180.8750000 110.4180000 115.5510000 178.8210000 111.5650000 114.4350000
 178.9319214 112.7981885 115.3299740 178.0568707 110.4798749 115.1797234
 183.4368790 109.8875784 112.8987728 182.8702276 110.0070000 114.3240000
 181.4530000 110.0070000 114.3240000 181.5740000 109.0350000 114.3550000
 181.0491057 109.4581082 115.0512381 180.6553487 110.2674789 116.6097628
 179.9664599 113.1633217 115.2867677 178.6743039 112.5095211 116.3540313
 178.2744407 113.5811457 114.9542770 178.4639448 109.5060218 114.8867150
 177.0015256 110.5342270 114.9050774 178.1865857 110.6405068 116.2536063
 183.0459904 110.7004292 112.2759391 184.5301579 109.9443141 112.9207570
 183.2193253 110.9367113 114.7823684 183.2157374 109.1864533 114.9615830
 181.1486078 110.9385210 114.3240000 182.4240000 107.5820000 114.4960000
 178.9430000 113.2020000 123.2930000 179.3810000 112.8800000 121.9750000
 180.8976870 113.0130422 121.9070128 181.5038325 112.1124892 122.8312661
 177.9730000 113.0850000 123.2730000 178.9011500 113.5630745 121.2679185
 179.0724998 111.8518257 121.7619032 181.2137786 114.0259699 122.1780657
 181.2658866 112.7800970 120.9044997 181.0692520 112.2973657 123.6868065
 180.8750000 110.4180000 128.7160000 178.8210000 111.5650000 127.6000000
 178.9319214 112.7981885 128.4949740 178.0568707 110.4798749 128.3447234
 183.4368790 109.8875784 126.0637728 182.8702276 110.0070000 127.4890000
 181.4530000 110.0070000 127.4890000 181.5740000 109.0350000 127.5200000
 181.0491057 109.4581082 128.2162381 180.6553487 110.2674789 129.7747628
 179.9664599 113.1633217 128.4517677 178.6743039 112.5095211 129.5190313
 178.2744407 113.5811457 128.1192770 178.4639448 109.5060218 128.0517150
 177.0015256 110.5342270 128.0700774 178.1865857 110.6405068 129.4186063
 183.0459904 110.7004292 125.4409391 184.5301579 109.9443141 126.0857570
 183.2193253 110.9367113 127.9473684 183.2157374 109.1864533 128.1265830
 181.1486078 110.9385210 127.4890000 182.4240000 107.5820000 127.6610000
 178.9430000 113.2020000 136.4580000 179.3810000 112.8800000 135.1400000
 180.8976870 113.0130422 135.0720128 181.5038325 112.1124892 135.9962661
 177.9730000 113.0850000 136.4380000 178.9011500 113.5630745 134.4329185
 179.0724998 111.8518257 134.9269032 181.2137786 114.0259699 135.3430657
 181.2658866 112.7800970 134.0694997 181.0692520 112.2973657 136.8518065
 180.8750000 110.4180000 141.8810000 178.8210000 111.5650000 140.7650000
 178.9319214 112.7981885 141.6599740 178.0568707 110.4798749 141.5097234
 183.4368790 109.8875784 139.2287728 182.8702276 110.0070000 140.6540000
 181.4530000 110.0070000 140.6540000 181.5740000 109.0350000 140.6850000
 181.0491057 109.4581082 141.3812381 180.6553487 110.2674789 142.9397628
 179.9664599 113.1633217 141.6167677 178.6743039 112.5095211 142.6840313
 178.2744407 113.5811457 141.2842770 178.4639448 109.5060218 141.2167150
 177.0015256 110.5342270 141.2350774 178.1865857 110.6405068 142.5836063
 183.0459904 110.7004292 138.6059391 184.5301579 109.9443141 139.2507570
 183.2193253 110.9367113 141.1123684 183.2157374 109.1864533 141.2915830
 181.1486078 110.9385210 140.6540000 182.4240000 107.5820000 140.8260000
 178.9430000 113.2020000 149.6230000 179.3810000 112.8800000 148.3050000
 180.8976870 113.0130422 148.2370128 181.5038325 112.1124892 149.1612661
 177.9730000 113.0850000 149.6030000 178.9011500 113.5630745 147.5979185
 179.0724998 111.8518257 148.0919032 181.2137786 114.0259699 148.5080657
 181.2658866 112.7800970 147.2344997 181.0692520 112.2973657 150.0168065
 180.8750000 110.4180000 155.0460000 178.8210000 111.5650000 153.9300000
 178.9319214 112.7981885 154.8249740 178.0568707 110.4798749 154.6747234
 183.4368790 109.8875784 152.3937728 182.8702276 110.0070000 153.8190000
 181.4530000 110.0070000 153.8190000 181.5740000 109.0350000 153.8500000
 181.0491057 109.4581082 154.5462381 180.6553487 110.2674789 156.1047628
 179.9664599 113.1633217 154.7817677 178.6743039 112.5095211 155.8490313
 178.2744407 113.5811457 154.4492770 178.4639448 109.5060218 154.3817150
 177.0015256 110.5342270 154.4000774 178.1865857 110.6405068 155.7486063
 183.0459904 110.7004292 151.7709391 184.5301579 109.9443141 152.4157570
 183.2193253 110.9367113 154.2773684 183.2157374 109.1864533 154.4565830
 181.1486078 110.9385210 153.8190000 182.4240000 107.5820000 153.9910000
 178.9430000 113.2020000 162.7880000 179.3810000 112.8800000 161.4700000
 180.8976870 113.0130422 161.4020128 181.5038325 112.1124892 162.3262661
 177.9730000 113.0850000 162.7680000 178.9011500 113.5630745 160.7629185
 179.0724998 111.8518257 161.2569032 181.2137786 114.0259699 161.6730657
 181.2658866 112.7800970 160.3994997 181.0692520 112.2973657 163.1818065
 180.8750000 110.4180000 168.2110000 178.8210000 111.5650000 167.0950000
 178.9319214 112.7981885 167.9899740 178.0568707 110.4798749 167.8397234
 183.4368790 109.8875784 165.5587728 182.8702276 110.0070000 166.9840000
 181.4530000 110.0070000 166.9840000 181.5740000 109.0350000 167.0150000
 181.0491057 109.4581082 167.7112381 180.6553487 110.2674789 169.2697628
 179.9664599 113.1633217 167.9467677 178.6743039 112.5095211 169.0140313
 178.2744407 113.5811457 167.6142770 178.4639448 109.5060218 167.5467150
 177.0015256 110.5342270 167.5650774 178.1865857 110.6405068 168.9136063
 183.0459904 110.7004292 164.9359391 184.5301579 109.9443141 165.5807570
 183.2193253 110.9367113 167.4423684 183.2157374 109.1864533 167.6215830
 181.1486078 110.9385210 166.9840000 182.4240000 107.5820000 167.1560000
 178.9430000 113.2020000 175.9530000 179.3810000 112.8800000 174.6350000
 180.8976870 113.0130422 174.5670128 181.5038325 112.1124892 175.4912661
 177.9730000 113.0850000 175.9330000 178.9011500 113.5630745 173.9279185
 179.0724998 111.8518257 174.4219032 181.2137786 114.0259699 174.8380657
 181.2658866 112.7800970 173.5644997 181.0692520 112.2973657 176.3468065
 180.8750000 110.4180000 181.3770000 178.8210000 111.5650000 180.2610000
 178.9319214 112.7981885 181.1559740 178.0568707 110.4798749 181.0057234
 183.4368790 109.8875784 178.7247728 182.8702276 110.0070000 180.1500000
 181.4530000 110.0070000 180.1500000 181.5740000 109.0350000 180.1810000
 181.0491057 109.4581082 180.8772381 180.6553487 110.2674789 182.4357628
 179.9664599 113.1633217 181.1127677 178.6743039 112.5095211 182.1800313
 178.2744407 113.5811457 180.7802770 178.4639448 109.5060218 180.7127150
 177.0015256 110.5342270 180.7310774 178.1865857 110.6405068 182.0796063
 183.0459904 110.7004292 178.1019391 184.5301579 109.9443141 178.7467570
 183.2193253 110.9367113 180.6083684 183.2157374 109.1864533 180.7875830
 181.1486078 110.9385210 180.1500000 182.4240000 107.5820000 180.3220000
 178.9430000 113.2020000 189.1190000 179.3810000 112.8800000 187.8010000
 180.8976870 113.0130422 187.7330128 181.5038325 112.1124892 188.6572661
 177.9730000 113.0850000 189.0990000 178.9011500 113.5630745 187.0939185
 179.0724998 111.8518257 187.5879032 181.2137786 114.0259699 188.0040657
 181.2658866 112.7800970 186.7304997 181.0692520 112.2973657 189.5128065
 180.8750000 110.4180000 194.5420000 178.8210000 111.5650000 193.4260000
 178.9319214 112.7981885 194.3209740 178.0568707 110.4798749 194.1707234
 183.4368790 109.8875784 191.8897728 182.8702276 110.0070000 193.3150000
 181.4530000 110.0070000 193.3150000 181.5740000 109.0350000 193.3460000
 181.0491057 109.4581082 194.0422381 180.6553487 110.2674789 195.6007628
 179.9664599 113.1633217 194.2777677 178.6743039 112.5095211 195.3450313
 178.2744407 113.5811457 193.9452770 178.4639448 109.5060218 193.8777150
 177.0015256 110.5342270 193.8960774 178.1865857 110.6405068 195.2446063
 183.0459904 110.7004292 191.2669391 184.5301579 109.9443141 191.9117570
 183.2193253 110.9367113 193.7733684 183.2157374 109.1864533 193.9525830
 181.1486078 110.9385210 193.3150000 182.4240000 107.5820000 193.4870000
 178.9430000 113.2020000 202.2840000 179.3810000 112.8800000 200.9660000
 180.8976870 113.0130422 200.8980128 181.5038325 112.1124892 201.8222661
 177.9730000 113.0850000 202.2640000 178.9011500 113.5630745 200.2589185
 179.0724998 111.8518257 200.7529032 181.2137786 114.0259699 201.1690657
 181.2658866 112.7800970 199.8954997 181.0692520 112.2973657 202.6778065
 180.8750000 117.7340000  76.0550000 178.8210000 118.8810000  74.9390000
 178.9319214 120.1141885  75.8339740 178.0568707 117.7958749  75.6837234
 183.4368790 117.2035784  73.4027728 182.8702276 117.3230000  74.8280000
 181.4530000 117.3230000  74.8280000 181.5740000 116.3510000  74.8590000
 181.0491057 116.7741082  75.5552381 180.6553487 117.5834789  77.1137628
 179.9664599 120.4793217  75.7907677 178.6743039 119.8255211  76.8580313
 178.2744407 120.8971457  75.4582770 178.4639448 116.8220218  75.3907150
 177.0015256 117.8502270  75.4090774 178.1865857 117.9565068  76.7576063
 183.0459904 118.0164292  72.7799391 184.5301579 117.2603141  73.4247570
 183.2193253 118.2527113  75.2863684 183.2157374 116.5024533  75.4655830
 181.1486078 118.2545210  74.8280000 182.4240000 114.8980000  75.0000000
 178.9430000 120.5180000  83.7970000 179.3810000 120.1960000  82.4790000
 180.8976870 120.3290422  82.4110128 181.5038325 119.4284892  83.3352661
 177.9730000 120.4010000  83.7770000 178.9011500 120.8790745  81.7719185
 179.0724998 119.1678257  82.2659032 181.2137786 121.3419699  82.6820657
 181.2658866 120.0960970  81.4084997 181.0692520 119.6133657  84.1908065
 180.8750000 117.7340000  89.2200000 178.8210000 118.8810000  88.1040000
 178.9319214 120.1141885  88.9989740 178.0568707 117.7958749  88.8487234
 183.4368790 117.2035784  86.5677728 182.8702276 117.3230000  87.9930000
 181.4530000 117.3230000  87.9930000 181.5740000 116.3510000  88.0240000
 181.0491057 116.7741082  88.7202381 180.6553487 117.5834789  90.2787628
 179.9664599 120.4793217  88.9557677 178.6743039 119.8255211  90.0230313
 178.2744407 120.8971457  88.6232770 178.4639448 116.8220218  88.5557150
 177.0015256 117.8502270  88.5740774 178.1865857 117.9565068  89.9226063
 183.0459904 118.0164292  85.9449391 184.5301579 117.2603141  86.5897570
 183.2193253 118.2527113  88.4513684 183.2157374 116.5024533  88.6305830
 181.1486078 118.2545210  87.9930000 182.4240000 114.8980000  88.1650000
 178.9430000 120.5180000  96.9620000 179.3810000 120.1960000  95.6440000
 180.8976870 120.3290422  95.5760128 181.5038325 119.4284892  96.5002661
 177.9730000 120.4010000  96.9420000 178.9011500 120.8790745  94.9369185
 179.0724998 119.1678257  95.4309032 181.2137786 121.3419699  95.8470657
 181.2658866 120.0960970  94.5734997 181.0692520 119.6133657  97.3558065
 180.8750000 117.7340000 102.3850000 178.8210000 118.8810000 101.2690000
 178.9319214 120.1141885 102.1639740 178.0568707 117.7958749 102.0137234
 183.4368790 117.2035784  99.7327728 182.8702276 117.3230000 101.1580000
 181.4530000 117.3230000 101.1580000 181.5740000 116.3510000 101.1890000
 181.0491057 116.7741082 101.8852381 180.6553487 117.5834789 103.4437628
 179.9664599 120.4793217 102.1207677 178.6743039 119.8255211 103.1880313
 178.2744407 120.8971457 101.7882770 178.4639448 116.8220218 101.7207150
 177.0015256 117.8502270 101.7390774 178.1865857 117.9565068 103.0876063
 183.0459904 118.0164292  99.1099391 184.5301579 117.2603141  99.7547570
 183.2193253 118.2527113 101.6163684 183.2157374 116.5024533 101.7955830
 181.1486078 118.2545210 101.1580000 182.4240000 114.8980000 101.3300000
 178.9430000 120.5180000 110.1270000 179.3810000 120.1960000 108.8090000
 180.8976870 120.3290422 108.7410128 181.5038325 119.4284892 109.6652661
 177.9730000 120.4010000 110.1070000 178.9011500 120.8790745 108.1019185
 179.0724998 119.1678257 108.5959032 181.2137786 121.3419699 109.0120657
 181.2658866 120.0960970 107.7384997 181.0692520 119.6133657 110.5208065
 180.8750000 117.7340000 115.5510000 178.8210000 118.8810000 114.4350000
 178.9319214 120.1141885 115.3299740 178.0568707 117.7958749 115.1797234
 183.4368790 117.2035784 112.8987728 182.8702276 117.3230000 114.3240000
 181.4530000 117.3230000 114.3240000 181.5740000 116.3510000 114.3550000
 181.0491057 116.7741082 115.0512381 180.6553487 117.5834789 116.6097628
 179.9664599 120.4793217 115.2867677 178.6743039 119.8255211 116.3540313
 178.2744407 120.8971457 114.9542770 178.4639448 116.8220218 114.8867150
 177.0015256 117.8502270 114.9050774 178.1865857 117.9565068 116.2536063
 183.0459904 118.0164292 112.2759391 184.5301579 117.2603141 112.9207570
 183.2193253 118.2527113 114.7823684 183.2157374 116.5024533 114.9615830
 181.1486078 118.2545210 114.3240000 182.4240000 114.8980000 114.4960000
 178.9430000 120.5180000 123.2930000 179.3810000 120.1960000 121.9750000
 180.8976870 120.3290422 121.9070128 181.5038325 119.4284892 122.8312661
 177.9730000 120.4010000 123.2730000 178.9011500 120.8790745 121.2679185
 179.0724998 119.1678257 121.7619032 181.2137786 121.3419699 122.1780657
 181.2658866 120.0960970 120.9044997 181.0692520 119.6133657 123.6868065
 180.8750000 117.7340000 128.7160000 178.8210000 118.8810000 127.6000000
 178.9319214 120.1141885 128.4949740 178.0568707 117.7958749 128.3447234
 183.4368790 117.2035784 126.0637728 182.8702276 117.3230000 127.4890000
 181.4530000 117.3230000 127.4890000 181.5740000 116.3510000 127.5200000
 181.0491057 116.7741082 128.2162381 180.6553487 117.5834789 129.7747628
 179.9664599 120.4793217 128.4517677 178.6743039 119.8255211 129.5190313
 178.2744407 120.8971457 128.1192770 178.4639448 116.8220218 128.0517150
 177.0015256 117.8502270 128.0700774 178.1865857 117.9565068 129.4186063
 183.0459904 118.0164292 125.4409391 184.5301579 117.2603141 126.0857570
 183.2193253 118.2527113 127.9473684 183.2157374 116.5024533 128.1265830
 181.1486078 118.2545210 127.4890000 182.4240000 114.8980000 127.6610000
 178.9430000 120.5180000 136.4580000 179.3810000 120.1960000 135.1400000
 180.8976870 120.3290422 135.0720128 181.5038325 119.4284892 135.9962661
 177.9730000 120.4010000 136.4380000 178.9011500 120.8790745 134.4329185
 179.0724998 119.1678257 134.9269032 181.2137786 121.3419699 135.3430657
 181.2658866 120.0960970 134.0694997 181.0692520 119.6133657 136.8518065
 180.8750000 117.7340000 141.8810000 178.8210000 118.8810000 140.7650000
 178.9319214 120.1141885 141.6599740 178.0568707 117.7958749 141.5097234
 183.4368790 117.2035784 139.2287728 182.8702276 117.3230000 140.6540000
 181.4530000 117.3230000 140.6540000 181.5740000 116.3510000 140.6850000
 181.0491057 116.7741082 141.3812381 180.6553487 117.5834789 142.9397628
 179.9664599 120.4793217 141.6167677 178.6743039 119.8255211 142.6840313
 178.2744407 120.8971457 141.2842770 178.4639448 116.8220218 141.2167150
 177.0015256 117.8502270 141.2350774 178.1865857 117.9565068 142.5836063
 183.0459904 118.0164292 138.6059391 184.5301579 117.2603141 139.2507570
 183.2193253 118.2527113 141.1123684 183.2157374 116.5024533 141.2915830
 181.1486078 118.2545210 140.6540000 182.4240000 114.8980000 140.8260000
 178.9430000 120.5180000 149.6230000 179.3810000 120.1960000 148.3050000
 180.8976870 120.3290422 148.2370128 181.5038325 119.4284892 149.1612661
 177.9730000 120.4010000 149.6030000 178.9011500 120.8790745 147.5979185
 179.0724998 119.1678257 148.0919032 181.2137786 121.3419699 148.5080657
 181.2658866 120.0960970 147.2344997 181.0692520 119.6133657 150.0168065
 180.8750000 117.7340000 155.0460000 178.8210000 118.8810000 153.9300000
 178.9319214 120.1141885 154.8249740 178.0568707 117.7958749 154.6747234
 183.4368790 117.2035784 152.3937728 182.8702276 117.3230000 153.8190000
 181.4530000 117.3230000 153.8190000 181.5740000 116.3510000 153.8500000
 181.0491057 116.7741082 154.5462381 180.6553487 117.5834789 156.1047628
 179.9664599 120.4793217 154.7817677 178.6743039 119.8255211 155.8490313
 178.2744407 120.8971457 154.4492770 178.4639448 116.8220218 154.3817150
 177.0015256 117.8502270 154.4000774 178.1865857 117.9565068 155.7486063
 183.0459904 118.0164292 151.7709391 184.5301579 117.2603141 152.4157570
 183.2193253 118.2527113 154.2773684 183.2157374 116.5024533 154.4565830
 181.1486078 118.2545210 153.8190000 182.4240000 114.8980000 153.9910000
 178.9430000 120.5180000 162.7880000 179.3810000 120.1960000 161.4700000
 180.8976870 120.3290422 161.4020128 181.5038325 119.4284892 162.3262661
 177.9730000 120.4010000 162.7680000 178.9011500 120.8790745 160.7629185
 179.0724998 119.1678257 161.2569032 181.2137786 121.3419699 161.6730657
 181.2658866 120.0960970 160.3994997 181.0692520 119.6133657 163.1818065
 180.8750000 117.7340000 168.2110000 178.8210000 118.8810000 167.0950000
 178.9319214 120.1141885 167.9899740 178.0568707 117.7958749 167.8397234
 183.4368790 117.2035784 165.5587728 182.8702276 117.3230000 166.9840000
 181.4530000 117.3230000 166.9840000 181.5740000 116.3510000 167.0150000
 181.0491057 116.7741082 167.7112381 180.6553487 117.5834789 169.2697628
 179.9664599 120.4793217 167.9467677 178.6743039 119.8255211 169.0140313
 178.2744407 120.8971457 167.6142770 178.4639448 116.8220218 167.5467150
 177.0015256 117.8502270 167.5650774 178.1865857 117.9565068 168.9136063
 183.0459904 118.0164292 164.9359391 184.5301579 117.2603141 165.5807570
 183.2193253 118.2527113 167.4423684 183.2157374 116.5024533 167.6215830
 181.1486078 118.2545210 166.9840000 182.4240000 114.8980000 167.1560000
 178.9430000 120.5180000 175.9530000 179.3810000 120.1960000 174.6350000
 180.8976870 120.3290422 174.5670128 181.5038325 119.4284892 175.4912661
 177.9730000 120.4010000 175.9330000 178.9011500 120.8790745 173.9279185
 179.0724998 119.1678257 174.4219032 181.2137786 121.3419699 174.8380657
 181.2658866 120.0960970 173.5644997 181.0692520 119.6133657 176.3468065
 180.8750000 117.7340000 181.3770000 178.8210000 118.8810000 180.2610000
 178.9319214 120.1141885 181.1559740 178.0568707 117.7958749 181.0057234
 183.4368790 117.2035784 178.7247728 182.8702276 117.3230000 180.1500000
 181.4530000 117.3230000 180.1500000 181.5740000 116.3510000 180.1810000
 181.0491057 116.7741082 180.8772381 180.6553487 117.5834789 182.4357628
 179.9664599 120.4793217 181.1127677 178.6743039 119.8255211 182.1800313
 178.2744407 120.8971457 180.7802770 178.4639448 116.8220218 180.7127150
 177.0015256 117.8502270 180.7310774 178.1865857 117.9565068 182.0796063
 183.0459904 118.0164292 178.1019391 184.5301579 117.2603141 178.7467570
 183.2193253 118.2527113 180.6083684 183.2157374 116.5024533 180.7875830
 181.1486078 118.2545210 180.1500000 182.4240000 114.8980000 180.3220000
 178.9430000 120.5180000 189.1190000 179.3810000 120.1960000 187.8010000
 180.8976870 120.3290422 187.7330128 181.5038325 119.4284892 188.6572661
 177.9730000 120.4010000 189.0990000 178.9011500 120.8790745 187.0939185
 179.0724998 119.1678257 187.5879032 181.2137786 121.3419699 188.0040657
 181.2658866 120.0960970 186.7304997 181.0692520 119.6133657 189.5128065
 180.8750000 117.7340000 194.5420000 178.8210000 118.8810000 193.4260000
 178.9319214 120.1141885 194.3209740 178.0568707 117.7958749 194.1707234
 183.4368790 117.2035784 191.8897728 182.8702276 117.3230000 193.3150000
 181.4530000 117.3230000 193.3150000 181.5740000 116.3510000 193.3460000
 181.0491057 116.7741082 194.0422381 180.6553487 117.5834789 195.6007628
 179.9664599 120.4793217 194.2777677 178.6743039 119.8255211 195.3450313
 178.2744407 120.8971457 193.9452770 178.4639448 116.8220218 193.8777150
 177.0015256 117.8502270 193.8960774 178.1865857 117.9565068 195.2446063
 183.0459904 118.0164292 191.2669391 184.5301579 117.2603141 191.9117570
 183.2193253 118.2527113 193.7733684 183.2157374 116.5024533 193.9525830
 181.1486078 118.2545210 193.3150000 182.4240000 114.8980000 193.4870000
 178.9430000 120.5180000 202.2840000 179.3810000 120.1960000 200.9660000
 180.8976870 120.3290422 200.8980128 181.5038325 119.4284892 201.8222661
 177.9730000 120.4010000 202.2640000 178.9011500 120.8790745 200.2589185
 179.0724998 119.1678257 200.7529032 181.2137786 121.3419699 201.1690657
 181.2658866 120.0960970 199.8954997 181.0692520 119.6133657 202.6778065
 180.8750000 125.0510000  76.0550000 178.8210000 126.1980000  74.9390000
 178.9319214 127.4311885  75.8339740 178.0568707 125.1128749  75.6837234
 183.4368790 124.5205784  73.4027728 182.8702276 124.6400000  74.8280000
 181.4530000 124.6400000  74.8280000 181.5740000 123.6680000  74.8590000
 181.0491057 124.0911082  75.5552381 180.6553487 124.9004789  77.1137628
 179.9664599 127.7963217  75.7907677 178.6743039 127.1425211  76.8580313
 178.2744407 128.2141457  75.4582770 178.4639448 124.1390218  75.3907150
 177.0015256 125.1672270  75.4090774 178.1865857 125.2735068  76.7576063
 183.0459904 125.3334292  72.7799391 184.5301579 124.5773141  73.4247570
 183.2193253 125.5697113  75.2863684 183.2157374 123.8194533  75.4655830
 181.1486078 125.5715210  74.8280000 182.4240000 122.2150000  75.0000000
 178.9430000 127.8350000  83.7970000 179.3810000 127.5130000  82.4790000
 180.8976870 127.6460422  82.4110128 181.5038325 126.7454892  83.3352661
 177.9730000 127.7180000  83.7770000 178.9011500 128.1960745  81.7719185
 179.0724998 126.4848257  82.2659032 181.2137786 128.6589699  82.6820657
 181.2658866 127.4130970  81.4084997 181.0692520 126.9303657  84.1908065
 180.8750000 125.0510000  89.2200000 178.8210000 126.1980000  88.1040000
 178.9319214 127.4311885  88.9989740 178.0568707 125.1128749  88.8487234
 183.4368790 124.5205784  86.5677728 182.8702276 124.6400000  87.9930000
 181.4530000 124.6400000  87.9930000 181.5740000 123.6680000  88.0240000
 181.0491057 124.0911082  88.7202381 180.6553487 124.9004789  90.2787628
 179.9664599 127.7963217  88.9557677 178.6743039 127.1425211  90.0230313
 178.2744407 128.2141457  88.6232770 178.4639448 124.1390218  88.5557150
 177.0015256 125.1672270  88.5740774 178.1865857 125.2735068  89.9226063
 183.0459904 125.3334292  85.9449391 184.5301579 124.5773141  86.5897570
 183.2193253 125.5697113  88.4513684 183.2157374 123.8194533  88.6305830
 181.1486078 125.5715210  87.9930000 182.4240000 122.2150000  88.1650000
 178.9430000 127.8350000  96.9620000 179.3810000 127.5130000  95.6440000
 180.8976870 127.6460422  95.5760128 181.5038325 126.7454892  96.5002661
 177.9730000 127.7180000  96.9420000 178.9011500 128.1960745  94.9369185
 179.0724998 126.4848257  95.4309032 181.2137786 128.6589699  95.8470657
 181.2658866 127.4130970  94.5734997 181.0692520 126.9303657  97.3558065
 180.8750000 125.0510000 102.3850000 178.8210000 126.1980000 101.2690000
 178.9319214 127.4311885 102.1639740 178.0568707 125.1128749 102.0137234
 183.4368790 124.5205784  99.7327728 182.8702276 124.6400000 101.1580000
 181.4530000 124.6400000 101.1580000 181.5740000 123.6680000 101.1890000
 181.0491057 124.0911082 101.8852381 180.6553487 124.9004789 103.4437628
 179.9664599 127.7963217 102.1207677 178.6743039 127.1425211 103.1880313
 178.2744407 128.2141457 101.7882770 178.4639448 124.1390218 101.7207150
 177.0015256 125.1672270 101.7390774 178.1865857 125.2735068 103.0876063
 183.0459904 125.3334292  99.1099391 184.5301579 124.5773141  99.7547570
 183.2193253 125.5697113 101.6163684 183.2157374 123.8194533 101.7955830
 181.1486078 125.5715210 101.1580000 182.4240000 122.2150000 101.3300000
 178.9430000 127.8350000 110.1270000 179.3810000 127.5130000 108.8090000
 180.8976870 127.6460422 108.7410128 181.5038325 126.7454892 109.6652661
 177.9730000 127.7180000 110.1070000 178.9011500 128.1960745 108.1019185
 179.0724998 126.4848257 108.5959032 181.2137786 128.6589699 109.0120657
 181.2658866 127.4130970 107.7384997 181.0692520 126.9303657 110.5208065
 180.8750000 125.0510000 115.5510000 178.8210000 126.1980000 114.4350000
 178.9319214 127.4311885 115.3299740 178.0568707 125.1128749 115.1797234
 183.4368790 124.5205784 112.8987728 182.8702276 124.6400000 114.3240000
 181.4530000 124.6400000 114.3240000 181.5740000 123.6680000 114.3550000
 181.0491057 124.0911082 115.0512381 180.6553487 124.9004789 116.6097628
 179.9664599 127.7963217 115.2867677 178.6743039 127.1425211 116.3540313
 178.2744407 128.2141457 114.9542770 178.4639448 124.1390218 114.8867150
 177.0015256 125.1672270 114.9050774 178.1865857 125.2735068 116.2536063
 183.0459904 125.3334292 112.2759391 184.5301579 124.5773141 112.9207570
 183.2193253 125.5697113 114.7823684 183.2157374 123.8194533 114.9615830
 181.1486078 125.5715210 114.3240000 182.4240000 122.2150000 114.4960000
 178.9430000 127.8350000 123.2930000 179.3810000 127.5130000 121.9750000
 180.8976870 127.6460422 121.9070128 181.5038325 126.7454892 122.8312661
 177.9730000 127.7180000 123.2730000 178.9011500 128.1960745 121.2679185
 179.0724998 126.4848257 121.7619032 181.2137786 128.6589699 122.1780657
 181.2658866 127.4130970 120.9044997 181.0692520 126.9303657 123.6868065
 180.8750000 125.0510000 128.7160000 178.8210000 126.1980000 127.6000000
 178.9319214 127.4311885 128.4949740 178.0568707 125.1128749 128.3447234
 183.4368790 124.5205784 126.0637728 182.8702276 124.6400000 127.4890000
 181.4530000 124.6400000 127.4890000 181.5740000 123.6680000 127.5200000
 181.0491057 124.0911082 128.2162381 180.6553487 124.9004789 129.7747628
 179.9664599 127.7963217 128.4517677 178.6743039 127.1425211 129.5190313
 178.2744407 128.2141457 128.1192770 178.4639448 124.1390218 128.0517150
 177.0015256 125.1672270 128.0700774 178.1865857 125.2735068 129.4186063
 183.0459904 125.3334292 125.4409391 184.5301579 124.5773141 126.0857570
 183.2193253 125.5697113 127.9473684 183.2157374 123.8194533 128.1265830
 181.1486078 125.5715210 127.4890000 182.4240000 122.2150000 127.6610000
 178.9430000 127.8350000 136.4580000 179.3810000 127.5130000 135.1400000
 180.8976870 127.6460422 135.0720128 181.5038325 126.7454892 135.9962661
 177.9730000 127.7180000 136.4380000 178.9011500 128.1960745 134.4329185
 179.0724998 126.4848257 134.9269032 181.2137786 128.6589699 135.3430657
 181.2658866 127.4130970 134.0694997 181.0692520 126.9303657 136.8518065
 180.8750000 125.0510000 141.8810000 178.8210000 126.1980000 140.7650000
 178.9319214 127.4311885 141.6599740 178.0568707 125.1128749 141.5097234
 183.4368790 124.5205784 139.2287728 182.8702276 124.6400000 140.6540000
 181.4530000 124.6400000 140.6540000 181.5740000 123.6680000 140.6850000
 181.0491057 124.0911082 141.3812381 180.6553487 124.9004789 142.9397628
 179.9664599 127.7963217 141.6167677 178.6743039 127.1425211 142.6840313
 178.2744407 128.2141457 141.2842770 178.4639448 124.1390218 141.2167150
 177.0015256 125.1672270 141.2350774 178.1865857 125.2735068 142.5836063
 183.0459904 125.3334292 138.6059391 184.5301579 124.5773141 139.2507570
 183.2193253 125.5697113 141.1123684 183.2157374 123.8194533 141.2915830
 181.1486078 125.5715210 140.6540000 182.4240000 122.2150000 140.8260000
 178.9430000 127.8350000 149.6230000 179.3810000 127.5130000 148.3050000
 180.8976870 127.6460422 148.2370128 181.5038325 126.7454892 149.1612661
 177.9730000 127.7180000 149.6030000 178.9011500 128.1960745 147.5979185
 179.0724998 126.4848257 148.0919032 181.2137786 128.6589699 148.5080657
 181.2658866 127.4130970 147.2344997 181.0692520 126.9303657 150.0168065
 180.8750000 125.0510000 155.0460000 178.8210000 126.1980000 153.9300000
 178.9319214 127.4311885 154.8249740 178.0568707 125.1128749 154.6747234
 183.4368790 124.5205784 152.3937728 182.8702276 124.6400000 153.8190000
 181.4530000 124.6400000 153.8190000 181.5740000 123.6680000 153.8500000
 181.0491057 124.0911082 154.5462381 180.6553487 124.9004789 156.1047628
 179.9664599 127.7963217 154.7817677 178.6743039 127.1425211 155.8490313
 178.2744407 128.2141457 154.4492770 178.4639448 124.1390218 154.3817150
 177.0015256 125.1672270 154.4000774 178.1865857 125.2735068 155.7486063
 183.0459904 125.3334292 151.7709391 184.5301579 124.5773141 152.4157570
 183.2193253 125.5697113 154.2773684 183.2157374 123.8194533 154.4565830
 181.1486078 125.5715210 153.8190000 182.4240000 122.2150000 153.9910000
 178.9430000 127.8350000 162.7880000 179.3810000 127.5130000 161.4700000
 180.8976870 127.6460422 161.4020128 181.5038325 126.7454892 162.3262661
 177.9730000 127.7180000 162.7680000 178.9011500 128.1960745 160.7629185
 179.0724998 126.4848257 161.2569032 181.2137786 128.6589699 161.6730657
 181.2658866 127.4130970 160.3994997 181.0692520 126.9303657 163.1818065
 180.8750000 125.0510000 168.2110000 178.8210000 126.1980000 167.0950000
 178.9319214 127.4311885 167.9899740 178.0568707 125.1128749 167.8397234
 183.4368790 124.5205784 165.5587728 182.8702276 124.6400000 166.9840000
 181.4530000 124.6400000 166.9840000 181.5740000 123.6680000 167.0150000
 181.0491057 124.0911082 167.7112381 180.6553487 124.9004789 169.2697628
 179.9664599 127.7963217 167.9467677 178.6743039 127.1425211 169.0140313
 178.2744407 128.2141457 167.6142770 178.4639448 124.1390218 167.5467150
 177.0015256 125.1672270 167.5650774 178.1865857 125.2735068 168.9136063
 183.0459904 125.3334292 164.9359391 184.5301579 124.5773141 165.5807570
 183.2193253 125.5697113 167.4423684 183.2157374 123.8194533 167.6215830
 181.1486078 125.5715210 166.9840000 182.4240000 122.2150000 167.1560000
 178.9430000 127.8350000 175.9530000 179.3810000 127.5130000 174.6350000
 180.8976870 127.6460422 174.5670128 181.5038325 126.7454892 175.4912661
 177.9730000 127.7180000 175.9330000 178.9011500 128.1960745 173.9279185
 179.0724998 126.4848257 174.4219032 181.2137786 128.6589699 174.8380657
 181.2658866 127.4130970 173.5644997 181.0692520 126.9303657 176.3468065
 180.8750000 125.0510000 181.3770000 178.8210000 126.1980000 180.2610000
 178.9319214 127.4311885 181.1559740 178.0568707 125.1128749 181.0057234
 183.4368790 124.5205784 178.7247728 182.8702276 124.6400000 180.1500000
 181.4530000 124.6400000 180.1500000 181.5740000 123.6680000 180.1810000
 181.0491057 124.0911082 180.8772381 180.6553487 124.9004789 182.4357628
 179.9664599 127.7963217 181.1127677 178.6743039 127.1425211 182.1800313
 178.2744407 128.2141457 180.7802770 178.4639448 124.1390218 180.7127150
 177.0015256 125.1672270 180.7310774 178.1865857 125.2735068 182.0796063
 183.0459904 125.3334292 178.1019391 184.5301579 124.5773141 178.7467570
 183.2193253 125.5697113 180.6083684 183.2157374 123.8194533 180.7875830
 181.1486078 125.5715210 180.1500000 182.4240000 122.2150000 180.3220000
 178.9430000 127.8350000 189.1190000 179.3810000 127.5130000 187.8010000
 180.8976870 127.6460422 187.7330128 181.5038325 126.7454892 188.6572661
 177.9730000 127.7180000 189.0990000 178.9011500 128.1960745 187.0939185
 179.0724998 126.4848257 187.5879032 181.2137786 128.6589699 188.0040657
 181.2658866 127.4130970 186.7304997 181.0692520 126.9303657 189.5128065
 180.8750000 125.0510000 194.5420000 178.8210000 126.1980000 193.4260000
 178.9319214 127.4311885 194.3209740 178.0568707 125.1128749 194.1707234
 183.4368790 124.5205784 191.8897728 182.8702276 124.6400000 193.3150000
 181.4530000 124.6400000 193.3150000 181.5740000 123.6680000 193.3460000
 181.0491057 124.0911082 194.0422381 180.6553487 124.9004789 195.6007628
 179.9664599 127.7963217 194.2777677 178.6743039 127.1425211 195.3450313
 178.2744407 128.2141457 193.9452770 178.4639448 124.1390218 193.8777150
 177.0015256 125.1672270 193.8960774 178.1865857 125.2735068 195.2446063
 183.0459904 125.3334292 191.2669391 184.5301579 124.5773141 191.9117570
 183.2193253 125.5697113 193.7733684 183.2157374 123.8194533 193.9525830
 181.1486078 125.5715210 193.3150000 182.4240000 122.2150000 193.4870000
 178.9430000 127.8350000 202.2840000 179.3810000 127.5130000 200.9660000
 180.8976870 127.6460422 200.8980128 181.5038325 126.7454892 201.8222661
 177.9730000 127.7180000 202.2640000 178.9011500 128.1960745 200.2589185
 179.0724998 126.4848257 200.7529032 181.2137786 128.6589699 201.1690657
 181.2658866 127.4130970 199.8954997 181.0692520 126.9303657 202.6778065
 180.8750000 132.3670000  76.0550000 178.8210000 133.5140000  74.9390000
 178.9319214 134.7471885  75.8339740 178.0568707 132.4288749  75.6837234
 183.4368790 131.8365784  73.4027728 182.8702276 131.9560000  74.8280000
 181.4530000 131.9560000  74.8280000 181.5740000 130.9840000  74.8590000
 181.0491057 131.4071082  75.5552381 180.6553487 132.2164789  77.1137628
 179.9664599 135.1123217  75.7907677 178.6743039 134.4585211  76.8580313
 178.2744407 135.5301457  75.4582770 178.4639448 131.4550218  75.3907150
 177.0015256 132.4832270  75.4090774 178.1865857 132.5895068  76.7576063
 183.0459904 132.6494292  72.7799391 184.5301579 131.8933141  73.4247570
 183.2193253 132.8857113  75.2863684 183.2157374 131.1354533  75.4655830
 181.1486078 132.8875210  74.8280000 182.4240000 129.5310000  75.0000000
 178.9430000 135.1510000  83.7970000 179.3810000 134.8290000  82.4790000
 180.8976870 134.9620422  82.4110128 181.5038325 134.0614892  83.3352661
 177.9730000 135.0340000  83.7770000 178.9011500 135.5120745  81.7719185
 179.0724998 133.8008257  82.2659032 181.2137786 135.9749699  82.6820657
 181.2658866 134.7290970  81.4084997 181.0692520 134.2463657  84.1908065
 180.8750000 132.3670000  89.2200000 178.8210000 133.5140000  88.1040000
 178.9319214 134.7471885  88.9989740 178.0568707 132.4288749  88.8487234
 183.4368790 131.8365784  86.5677728 182.8702276 131.9560000  87.9930000
 181.4530000 131.9560000  87.9930000 181.5740000 130.9840000  88.0240000
 181.0491057 131.4071082  88.7202381 180.6553487 132.2164789  90.2787628
 179.9664599 135.1123217  88.9557677 178.6743039 134.4585211  90.0230313
 178.2744407 135.5301457  88.6232770 178.4639448 131.4550218  88.5557150
 177.0015256 132.4832270  88.5740774 178.1865857 132.5895068  89.9226063
 183.0459904 132.6494292  85.9449391 184.5301579 131.8933141  86.5897570
 183.2193253 132.8857113  88.4513684 183.2157374 131.1354533  88.6305830
 181.1486078 132.8875210  87.9930000 182.4240000 129.5310000  88.1650000
 178.9430000 135.1510000  96.9620000 179.3810000 134.8290000  95.6440000
 180.8976870 134.9620422  95.5760128 181.5038325 134.0614892  96.5002661
 177.9730000 135.0340000  96.9420000 178.9011500 135.5120745  94.9369185
 179.0724998 133.8008257  95.4309032 181.2137786 135.9749699  95.8470657
 181.2658866 134.7290970  94.5734997 181.0692520 134.2463657  97.3558065
 180.8750000 132.3670000 102.3850000 178.8210000 133.5140000 101.2690000
 178.9319214 134.7471885 102.1639740 178.0568707 132.4288749 102.0137234
 183.4368790 131.8365784  99.7327728 182.8702276 131.9560000 101.1580000
 181.4530000 131.9560000 101.1580000 181.5740000 130.9840000 101.1890000
 181.0491057 131.4071082 101.8852381 180.6553487 132.2164789 103.4437628
 179.9664599 135.1123217 102.1207677 178.6743039 134.4585211 103.1880313
 178.2744407 135.5301457 101.7882770 178.4639448 131.4550218 101.7207150
 177.0015256 132.4832270 101.7390774 178.1865857 132.5895068 103.0876063
 183.0459904 132.6494292  99.1099391 184.5301579 131.8933141  99.7547570
 183.2193253 132.8857113 101.6163684 183.2157374 131.1354533 101.7955830
 181.1486078 132.8875210 101.1580000 182.4240000 129.5310000 101.3300000
 178.9430000 135.1510000 110.1270000 179.3810000 134.8290000 108.8090000
 180.8976870 134.9620422 108.7410128 181.5038325 134.0614892 109.6652661
 177.9730000 135.0340000 110.1070000 178.9011500 135.5120745 108.1019185
 179.0724998 133.8008257 108.5959032 181.2137786 135.9749699 109.0120657
 181.2658866 134.7290970 107.7384997 181.0692520 134.2463657 110.5208065
 180.8750000 132.3670000 115.5510000 178.8210000 133.5140000 114.4350000
 178.9319214 134.7471885 115.3299740 178.0568707 132.4288749 115.1797234
 183.4368790 131.8365784 112.8987728 182.8702276 131.9560000 114.3240000
 181.4530000 131.9560000 114.3240000 181.5740000 130.9840000 114.3550000
 181.0491057 131.4071082 115.0512381 180.6553487 132.2164789 116.6097628
 179.9664599 135.1123217 115.2867677 178.6743039 134.4585211 116.3540313
 178.2744407 135.5301457 114.9542770 178.4639448 131.4550218 114.8867150
 177.0015256 132.4832270 114.9050774 178.1865857 132.5895068 116.2536063
 183.0459904 132.6494292 112.2759391 184.5301579 131.8933141 112.9207570
 183.2193253 132.8857113 114.7823684 183.2157374 131.1354533 114.9615830
 181.1486078 132.8875210 114.3240000 182.4240000 129.5310000 114.4960000
 178.9430000 135.1510000 123.2930000 179.3810000 134.8290000 121.9750000
 180.8976870 134.9620422 121.9070128 181.5038325 134.0614892 122.8312661
 177.9730000 135.0340000 123.2730000 178.9011500 135.5120745 121.2679185
 179.0724998 133.8008257 121.7619032 181.2137786 135.9749699 122.1780657
 181.2658866 134.7290970 120.9044997 181.0692520 134.2463657 123.6868065
 180.8750000 132.3670000 128.7160000 178.8210000 133.5140000 127.6000000
 178.9319214 134.7471885 128.4949740 178.0568707 132.4288749 128.3447234
 183.4368790 131.8365784 126.0637728 182.8702276 131.9560000 127.4890000
 181.4530000 131.9560000 127.4890000 181.5740000 130.9840000 127.5200000
 181.0491057 131.4071082 128.2162381 180.6553487 132.2164789 129.7747628
 179.9664599 135.1123217 128.4517677 178.6743039 134.4585211 129.5190313
 178.2744407 135.5301457 128.1192770 178.4639448 131.4550218 128.0517150
 177.0015256 132.4832270 128.0700774 178.1865857 132.5895068 129.4186063
 183.0459904 132.6494292 125.4409391 184.5301579 131.8933141 126.0857570
 183.2193253 132.8857113 127.9473684 183.2157374 131.1354533 128.1265830
 181.1486078 132.8875210 127.4890000 182.4240000 129.5310000 127.6610000
 178.9430000 135.1510000 136.4580000 179.3810000 134.8290000 135.1400000
 180.8976870 134.9620422 135.0720128 181.5038325 134.0614892 135.9962661
 177.9730000 135.0340000 136.4380000 178.9011500 135.5120745 134.4329185
 179.0724998 133.8008257 134.9269032 181.2137786 135.9749699 135.3430657
 181.2658866 134.7290970 134.0694997 181.0692520 134.2463657 136.8518065
 180.8750000 132.3670000 141.8810000 178.8210000 133.5140000 140.7650000
 178.9319214 134.7471885 141.6599740 178.0568707 132.4288749 141.5097234
 183.4368790 131.8365784 139.2287728 182.8702276 131.9560000 140.6540000
 181.4530000 131.9560000 140.6540000 181.5740000 130.9840000 140.6850000
 181.0491057 131.4071082 141.3812381 180.6553487 132.2164789 142.9397628
 179.9664599 135.1123217 141.6167677 178.6743039 134.4585211 142.6840313
 178.2744407 135.5301457 141.2842770 178.4639448 131.4550218 141.2167150
 177.0015256 132.4832270 141.2350774 178.1865857 132.5895068 142.5836063
 183.0459904 132.6494292 138.6059391 184.5301579 131.8933141 139.2507570
 183.2193253 132.8857113 141.1123684 183.2157374 131.1354533 141.2915830
 181.1486078 132.8875210 140.6540000 182.4240000 129.5310000 140.8260000
 178.9430000 135.1510000 149.6230000 179.3810000 134.8290000 148.3050000
 180.8976870 134.9620422 148.2370128 181.5038325 134.0614892 149.1612661
 177.9730000 135.0340000 149.6030000 178.9011500 135.5120745 147.5979185
 179.0724998 133.8008257 148.0919032 181.2137786 135.9749699 148.5080657
 181.2658866 134.7290970 147.2344997 181.0692520 134.2463657 150.0168065
 180.8750000 132.3670000 155.0460000 178.8210000 133.5140000 153.9300000
 178.9319214 134.7471885 154.8249740 178.0568707 132.4288749 154.6747234
 183.4368790 131.8365784 152.3937728 182.8702276 131.9560000 153.8190000
 181.4530000 131.9560000 153.8190000 181.5740000 130.9840000 153.8500000
 181.0491057 131.4071082 154.5462381 180.6553487 132.2164789 156.1047628
 179.9664599 135.1123217 154.7817677 178.6743039 134.4585211 155.8490313
 178.2744407 135.5301457 154.4492770 178.4639448 131.4550218 154.3817150
 177.0015256 132.4832270 154.4000774 178.1865857 132.5895068 155.7486063
 183.0459904 132.6494292 151.7709391 184.5301579 131.8933141 152.4157570
 183.2193253 132.8857113 154.2773684 183.2157374 131.1354533 154.4565830
 181.1486078 132.8875210 153.8190000 182.4240000 129.5310000 153.9910000
 178.9430000 135.1510000 162.7880000 179.3810000 134.8290000 161.4700000
 180.8976870 134.9620422 161.4020128 181.5038325 134.0614892 162.3262661
 177.9730000 135.0340000 162.7680000 178.9011500 135.5120745 160.7629185
 179.0724998 133.8008257 161.2569032 181.2137786 135.9749699 161.6730657
 181.2658866 134.7290970 160.3994997 181.0692520 134.2463657 163.1818065
 180.8750000 132.3670000 168.2110000 178.8210000 133.5140000 167.0950000
 178.9319214 134.7471885 167.9899740 178.0568707 132.4288749 167.8397234
 183.4368790 131.8365784 165.5587728 182.8702276 131.9560000 166.9840000
 181.4530000 131.9560000 166.9840000 181.5740000 130.9840000 167.0150000
 181.0491057 131.4071082 167.7112381 180.6553487 132.2164789 169.2697628
 179.9664599 135.1123217 167.9467677 178.6743039 134.4585211 169.0140313
 178.2744407 135.5301457 167.6142770 178.4639448 131.4550218 167.5467150
 177.0015256 132.4832270 167.5650774 178.1865857 132.5895068 168.9136063
 183.0459904 132.6494292 164.9359391 184.5301579 131.8933141 165.5807570
 183.2193253 132.8857113 167.4423684 183.2157374 131.1354533 167.6215830
 181.1486078 132.8875210 166.9840000 182.4240000 129.5310000 167.1560000
 178.9430000 135.1510000 175.9530000 179.3810000 134.8290000 174.6350000
 180.8976870 134.9620422 174.5670128 181.5038325 134.0614892 175.4912661
 177.9730000 135.0340000 175.9330000 178.9011500 135.5120745 173.9279185
 179.0724998 133.8008257 174.4219032 181.2137786 135.9749699 174.8380657
 181.2658866 134.7290970 173.5644997 181.0692520 134.2463657 176.3468065
 180.8750000 132.3670000 181.3770000 178.8210000 133.5140000 180.2610000
 178.9319214 134.7471885 181.1559740 178.0568707 132.4288749 181.0057234
 183.4368790 131.8365784 178.7247728 182.8702276 131.9560000 180.1500000
 181.4530000 131.9560000 180.1500000 181.5740000 130.9840000 180.1810000
 181.0491057 131.4071082 180.8772381 180.6553487 132.2164789 182.4357628
 179.9664599 135.1123217 181.1127677 178.6743039 134.4585211 182.1800313
 178.2744407 135.5301457 180.7802770 178.4639448 131.4550218 180.7127150
 177.0015256 132.4832270 180.7310774 178.1865857 132.5895068 182.0796063
 183.0459904 132.6494292 178.1019391 184.5301579 131.8933141 178.7467570
 183.2193253 132.8857113 180.6083684 183.2157374 131.1354533 180.7875830
 181.1486078 132.8875210 180.1500000 182.4240000 129.5310000 180.3220000
 178.9430000 135.1510000 189.1190000 179.3810000 134.8290000 187.8010000
 180.8976870 134.9620422 187.7330128 181.5038325 134.0614892 188.6572661
 177.9730000 135.0340000 189.0990000 178.9011500 135.5120745 187.0939185
 179.0724998 133.8008257 187.5879032 181.2137786 135.9749699 188.0040657
 181.2658866 134.7290970 186.7304997 181.0692520 134.2463657 189.5128065
 180.8750000 132.3670000 194.5420000 178.8210000 133.5140000 193.4260000
 178.9319214 134.7471885 194.3209740 178.0568707 132.4288749 194.1707234
 183.4368790 131.8365784 191.8897728 182.8702276 131.9560000 193.3150000
 181.4530000 131.9560000 193.3150000 181.5740000 130.9840000 193.3460000
 181.0491057 131.4071082 194.0422381 180.6553487 132.2164789 195.6007628
 179.9664599 135.1123217 194.2777677 178.6743039 134.4585211 195.3450313
 178.2744407 135.5301457 193.9452770 178.4639448 131.4550218 193.8777150
 177.0015256 132.4832270 193.8960774 178.1865857 132.5895068 195.2446063
 183.0459904 132.6494292 191.2669391 184.5301579 131.8933141 191.9117570
 183.2193253 132.8857113 193.7733684 183.2157374 131.1354533 193.9525830
 181.1486078 132.8875210 193.3150000 182.4240000 129.5310000 193.4870000
 178.9430000 135.1510000 202.2840000 179.3810000 134.8290000 200.9660000
 180.8976870 134.9620422 200.8980128 181.5038325 134.0614892 201.8222661
 177.9730000 135.0340000 202.2640000 178.9011500 135.5120745 200.2589185
 179.0724998 133.8008257 200.7529032 181.2137786 135.9749699 201.1690657
 181.2658866 134.7290970 199.8954997 181.0692520 134.2463657 202.6778065
 180.8750000 139.6840000  76.0550000 178.8210000 140.8310000  74.9390000
 178.9319214 142.0641885  75.8339740 178.0568707 139.7458749  75.6837234
 183.4368790 139.1535784  73.4027728 182.8702276 139.2730000  74.8280000
 181.4530000 139.2730000  74.8280000 181.5740000 138.3010000  74.8590000
 181.0491057 138.7241082  75.5552381 180.6553487 139.5334789  77.1137628
 179.9664599 142.4293217  75.7907677 178.6743039 141.7755211  76.8580313
 178.2744407 142.8471457  75.4582770 178.4639448 138.7720218  75.3907150
 177.0015256 139.8002270  75.4090774 178.1865857 139.9065068  76.7576063
 183.0459904 139.9664292  72.7799391 184.5301579 139.2103141  73.4247570
 183.2193253 140.2027113  75.2863684 183.2157374 138.4524533  75.4655830
 181.1486078 140.2045210  74.8280000 182.4240000 136.8480000  75.0000000
 178.9430000 142.4680000  83.7970000 179.3810000 142.1460000  82.4790000
 180.8976870 142.2790422  82.4110128 181.5038325 141.3784892  83.3352661
 177.9730000 142.3510000  83.7770000 178.9011500 142.8290745  81.7719185
 179.0724998 141.1178257  82.2659032 181.2137786 143.2919699  82.6820657
 181.2658866 142.0460970  81.4084997 181.0692520 141.5633657  84.1908065
 180.8750000 139.6840000  89.2200000 178.8210000 140.8310000  88.1040000
 178.9319214 142.0641885  88.9989740 178.0568707 139.7458749  88.8487234
 183.4368790 139.1535784  86.5677728 182.8702276 139.2730000  87.9930000
 181.4530000 139.2730000  87.9930000 181.5740000 138.3010000  88.0240000
 181.0491057 138.7241082  88.7202381 180.6553487 139.5334789  90.2787628
 179.9664599 142.4293217  88.9557677 178.6743039 141.7755211  90.0230313
 178.2744407 142.8471457  88.6232770 178.4639448 138.7720218  88.5557150
 177.0015256 139.8002270  88.5740774 178.1865857 139.9065068  89.9226063
 183.0459904 139.9664292  85.9449391 184.5301579 139.2103141  86.5897570
 183.2193253 140.2027113  88.4513684 183.2157374 138.4524533  88.6305830
 181.1486078 140.2045210  87.9930000 182.4240000 136.8480000  88.1650000
 178.9430000 142.4680000  96.9620000 179.3810000 142.1460000  95.6440000
 180.8976870 142.2790422  95.5760128 181.5038325 141.3784892  96.5002661
 177.9730000 142.3510000  96.9420000 178.9011500 142.8290745  94.9369185
 179.0724998 141.1178257  95.4309032 181.2137786 143.2919699  95.8470657
 181.2658866 142.0460970  94.5734997 181.0692520 141.5633657  97.3558065
 180.8750000 139.6840000 102.3850000 178.8210000 140.8310000 101.2690000
 178.9319214 142.0641885 102.1639740 178.0568707 139.7458749 102.0137234
 183.4368790 139.1535784  99.7327728 182.8702276 139.2730000 101.1580000
 181.4530000 139.2730000 101.1580000 181.5740000 138.3010000 101.1890000
 181.0491057 138.7241082 101.8852381 180.6553487 139.5334789 103.4437628
 179.9664599 142.4293217 102.1207677 178.6743039 141.7755211 103.1880313
 178.2744407 142.8471457 101.7882770 178.4639448 138.7720218 101.7207150
 177.0015256 139.8002270 101.7390774 178.1865857 139.9065068 103.0876063
 183.0459904 139.9664292  99.1099391 184.5301579 139.2103141  99.7547570
 183.2193253 140.2027113 101.6163684 183.2157374 138.4524533 101.7955830
 181.1486078 140.2045210 101.1580000 182.4240000 136.8480000 101.3300000
 178.9430000 142.4680000 110.1270000 179.3810000 142.1460000 108.8090000
 180.8976870 142.2790422 108.7410128 181.5038325 141.3784892 109.6652661
 177.9730000 142.3510000 110.1070000 178.9011500 142.8290745 108.1019185
 179.0724998 141.1178257 108.5959032 181.2137786 143.2919699 109.0120657
 181.2658866 142.0460970 107.7384997 181.0692520 141.5633657 110.5208065
 180.8750000 139.6840000 115.5510000 178.8210000 140.8310000 114.4350000
 178.9319214 142.0641885 115.3299740 178.0568707 139.7458749 115.1797234
 183.4368790 139.1535784 112.8987728 182.8702276 139.2730000 114.3240000
 181.4530000 139.2730000 114.3240000 181.5740000 138.3010000 114.3550000
 181.0491057 138.7241082 115.0512381 180.6553487 139.5334789 116.6097628
 179.9664599 142.4293217 115.2867677 178.6743039 141.7755211 116.3540313
 178.2744407 142.8471457 114.9542770 178.4639448 138.7720218 114.8867150
 177.0015256 139.8002270 114.9050774 178.1865857 139.9065068 116.2536063
 183.0459904 139.9664292 112.2759391 184.5301579 139.2103141 112.9207570
 183.2193253 140.2027113 114.7823684 183.2157374 138.4524533 114.9615830
 181.1486078 140.2045210 114.3240000 182.4240000 136.8480000 114.4960000
 178.9430000 142.4680000 123.2930000 179.3810000 142.1460000 121.9750000
 180.8976870 142.2790422 121.9070128 181.5038325 141.3784892 122.8312661
 177.9730000 142.3510000 123.2730000 178.9011500 142.8290745 121.2679185
 179.0724998 141.1178257 121.7619032 181.2137786 143.2919699 122.1780657
 181.2658866 142.0460970 120.9044997 181.0692520 141.5633657 123.6868065
 180.8750000 139.6840000 128.7160000 178.8210000 140.8310000 127.6000000
 178.9319214 142.0641885 128.4949740 178.0568707 139.7458749 128.3447234
 183.4368790 139.1535784 126.0637728 182.8702276 139.2730000 127.4890000
 181.4530000 139.2730000 127.4890000 181.5740000 138.3010000 127.5200000
 181.0491057 138.7241082 128.2162381 180.6553487 139.5334789 129.7747628
 179.9664599 142.4293217 128.4517677 178.6743039 141.7755211 129.5190313
 178.2744407 142.8471457 128.1192770 178.4639448 138.7720218 128.0517150
 177.0015256 139.8002270 128.0700774 178.1865857 139.9065068 129.4186063
 183.0459904 139.9664292 125.4409391 184.5301579 139.2103141 126.0857570
 183.2193253 140.2027113 127.9473684 183.2157374 138.4524533 128.1265830
 181.1486078 140.2045210 127.4890000 182.4240000 136.8480000 127.6610000
 178.9430000 142.4680000 136.4580000 179.3810000 142.1460000 135.1400000
 180.8976870 142.2790422 135.0720128 181.5038325 141.3784892 135.9962661
 177.9730000 142.3510000 136.4380000 178.9011500 142.8290745 134.4329185
 179.0724998 141.1178257 134.9269032 181.2137786 143.2919699 135.3430657
 181.2658866 142.0460970 134.0694997 181.0692520 141.5633657 136.8518065
 180.8750000 139.6840000 141.8810000 178.8210000 140.8310000 140.7650000
 178.9319214 142.0641885 141.6599740 178.0568707 139.7458749 141.5097234
 183.4368790 139.1535784 139.2287728 182.8702276 139.2730000 140.6540000
 181.4530000 139.2730000 140.6540000 181.5740000 138.3010000 140.6850000
 181.0491057 138.7241082 141.3812381 180.6553487 139.5334789 142.9397628
 179.9664599 142.4293217 141.6167677 178.6743039 141.7755211 142.6840313
 178.2744407 142.8471457 141.2842770 178.4639448 138.7720218 141.2167150
 177.0015256 139.8002270 141.2350774 178.1865857 139.9065068 142.5836063
 183.0459904 139.9664292 138.6059391 184.5301579 139.2103141 139.2507570
 183.2193253 140.2027113 141.1123684 183.2157374 138.4524533 141.2915830
 181.1486078 140.2045210 140.6540000 182.4240000 136.8480000 140.8260000
 178.9430000 142.4680000 149.6230000 179.3810000 142.1460000 148.3050000
 180.8976870 142.2790422 148.2370128 181.5038325 141.3784892 149.1612661
 177.9730000 142.3510000 149.6030000 178.9011500 142.8290745 147.5979185
 179.0724998 141.1178257 148.0919032 181.2137786 143.2919699 148.5080657
 181.2658866 142.0460970 147.2344997 181.0692520 141.5633657 150.0168065
 180.8750000 139.6840000 155.0460000 178.8210000 140.8310000 153.9300000
 178.9319214 142.0641885 154.8249740 178.0568707 139.7458749 154.6747234
 183.4368790 139.1535784 152.3937728 182.8702276 139.2730000 153.8190000
 181.4530000 139.2730000 153.8190000 181.5740000 138.3010000 153.8500000
 181.0491057 138.7241082 154.5462381 180.6553487 139.5334789 156.1047628
 179.9664599 142.4293217 154.7817677 178.6743039 141.7755211 155.8490313
 178.2744407 142.8471457 154.4492770 178.4639448 138.7720218 154.3817150
 177.0015256 139.8002270 154.4000774 178.1865857 139.9065068 155.7486063
 183.0459904 139.9664292 151.7709391 184.5301579 139.2103141 152.4157570
 183.2193253 140.2027113 154.2773684 183.2157374 138.4524533 154.4565830
 181.1486078 140.2045210 153.8190000 182.4240000 136.8480000 153.9910000
 178.9430000 142.4680000 162.7880000 179.3810000 142.1460000 161.4700000
 180.8976870 142.2790422 161.4020128 181.5038325 141.3784892 162.3262661
 177.9730000 142.3510000 162.7680000 178.9011500 142.8290745 160.7629185
 179.0724998 141.1178257 161.2569032 181.2137786 143.2919699 161.6730657
 181.2658866 142.0460970 160.3994997 181.0692520 141.5633657 163.1818065
 180.8750000 139.6840000 168.2110000 178.8210000 140.8310000 167.0950000
 178.9319214 142.0641885 167.9899740 178.0568707 139.7458749 167.8397234
 183.4368790 139.1535784 165.5587728 182.8702276 139.2730000 166.9840000
 181.4530000 139.2730000 166.9840000 181.5740000 138.3010000 167.0150000
 181.0491057 138.7241082 167.7112381 180.6553487 139.5334789 169.2697628
 179.9664599 142.4293217 167.9467677 178.6743039 141.7755211 169.0140313
 178.2744407 142.8471457 167.6142770 178.4639448 138.7720218 167.5467150
 177.0015256 139.8002270 167.5650774 178.1865857 139.9065068 168.9136063
 183.0459904 139.9664292 164.9359391 184.5301579 139.2103141 165.5807570
 183.2193253 140.2027113 167.4423684 183.2157374 138.4524533 167.6215830
 181.1486078 140.2045210 166.9840000 182.4240000 136.8480000 167.1560000
 178.9430000 142.4680000 175.9530000 179.3810000 142.1460000 174.6350000
 180.8976870 142.2790422 174.5670128 181.5038325 141.3784892 175.4912661
 177.9730000 142.3510000 175.9330000 178.9011500 142.8290745 173.9279185
 179.0724998 141.1178257 174.4219032 181.2137786 143.2919699 174.8380657
 181.2658866 142.0460970 173.5644997 181.0692520 141.5633657 176.3468065
 180.8750000 139.6840000 181.3770000 178.8210000 140.8310000 180.2610000
 178.9319214 142.0641885 181.1559740 178.0568707 139.7458749 181.0057234
 183.4368790 139.1535784 178.7247728 182.8702276 139.2730000 180.1500000
 181.4530000 139.2730000 180.1500000 181.5740000 138.3010000 180.1810000
 181.0491057 138.7241082 180.8772381 180.6553487 139.5334789 182.4357628
 179.9664599 142.4293217 181.1127677 178.6743039 141.7755211 182.1800313
 178.2744407 142.8471457 180.7802770 178.4639448 138.7720218 180.7127150
 177.0015256 139.8002270 180.7310774 178.1865857 139.9065068 182.0796063
 183.0459904 139.9664292 178.1019391 184.5301579 139.2103141 178.7467570
 183.2193253 140.2027113 180.6083684 183.2157374 138.4524533 180.7875830
 181.1486078 140.2045210 180.1500000 182.4240000 136.8480000 180.3220000
 178.9430000 142.4680000 189.1190000 179.3810000 142.1460000 187.8010000
 180.8976870 142.2790422 187.7330128 181.5038325 141.3784892 188.6572661
 177.9730000 142.3510000 189.0990000 178.9011500 142.8290745 187.0939185
 179.0724998 141.1178257 187.5879032 181.2137786 143.2919699 188.0040657
 181.2658866 142.0460970 186.7304997 181.0692520 141.5633657 189.5128065
 180.8750000 139.6840000 194.5420000 178.8210000 140.8310000 193.4260000
 178.9319214 142.0641885 194.3209740 178.0568707 139.7458749 194.1707234
 183.4368790 139.1535784 191.8897728 182.8702276 139.2730000 193.3150000
 181.4530000 139.2730000 193.3150000 181.5740000 138.3010000 193.3460000
 181.0491057 138.7241082 194.0422381 180.6553487 139.5334789 195.6007628
 179.9664599 142.4293217 194.2777677 178.6743039 141.7755211 195.3450313
 178.2744407 142.8471457 193.9452770 178.4639448 138.7720218 193.8777150
 177.0015256 139.8002270 193.8960774 178.1865857 139.9065068 195.2446063
 183.0459904 139.9664292 191.2669391 184.5301579 139.2103141 191.9117570
 183.2193253 140.2027113 193.7733684 183.2157374 138.4524533 193.9525830
 181.1486078 140.2045210 193.3150000 182.4240000 136.8480000 193.4870000
 178.9430000 142.4680000 202.2840000 179.3810000 142.1460000 200.9660000
 180.8976870 142.2790422 200.8980128 181.5038325 141.3784892 201.8222661
 177.9730000 142.3510000 202.2640000 178.9011500 142.8290745 200.2589185
 179.0724998 141.1178257 200.7529032 181.2137786 143.2919699 201.1690657
 181.2658866 142.0460970 199.8954997 181.0692520 141.5633657 202.6778065
 193.5530000  73.8360000  76.0550000 191.4990000  74.9830000  74.9390000
 191.6099214  76.2161885  75.8339740 190.7348707  73.8978749  75.6837234
 196.1148790  73.3055784  73.4027728 195.5482276  73.4250000  74.8280000
 194.1310000  73.4250000  74.8280000 194.2520000  72.4530000  74.8590000
 193.7271057  72.8761082  75.5552381 193.3333487  73.6854789  77.1137628
 192.6444599  76.5813217  75.7907677 191.3523039  75.9275211  76.8580313
 190.9524407  76.9991457  75.4582770 191.1419448  72.9240218  75.3907150
 189.6795256  73.9522270  75.4090774 190.8645857  74.0585068  76.7576063
 195.7239904  74.1184292  72.7799391 197.2081579  73.3623141  73.4247570
 195.8973253  74.3547113  75.2863684 195.8937374  72.6044533  75.4655830
 193.8266078  74.3565210  74.8280000 195.1020000  71.0000000  75.0000000
 191.6210000  76.6200000  83.7970000 192.0590000  76.2980000  82.4790000
 193.5756870  76.4310422  82.4110128 194.1818325  75.5304892  83.3352661
 190.6510000  76.5030000  83.7770000 191.5791500  76.9810745  81.7719185
 191.7504998  75.2698257  82.2659032 193.8917786  77.4439699  82.6820657
 193.9438866  76.1980970  81.4084997 193.7472520  75.7153657  84.1908065
 193.5530000  73.8360000  89.2200000 191.4990000  74.9830000  88.1040000
 191.6099214  76.2161885  88.9989740 190.7348707  73.8978749  88.8487234
 196.1148790  73.3055784  86.5677728 195.5482276  73.4250000  87.9930000
 194.1310000  73.4250000  87.9930000 194.2520000  72.4530000  88.0240000
 193.7271057  72.8761082  88.7202381 193.3333487  73.6854789  90.2787628
 192.6444599  76.5813217  88.9557677 191.3523039  75.9275211  90.0230313
 190.9524407  76.9991457  88.6232770 191.1419448  72.9240218  88.5557150
 189.6795256  73.9522270  88.5740774 190.8645857  74.0585068  89.9226063
 195.7239904  74.1184292  85.9449391 197.2081579  73.3623141  86.5897570
 195.8973253  74.3547113  88.4513684 195.8937374  72.6044533  88.6305830
 193.8266078  74.3565210  87.9930000 195.1020000  71.0000000  88.1650000
 191.6210000  76.6200000  96.9620000 192.0590000  76.2980000  95.6440000
 193.5756870  76.4310422  95.5760128 194.1818325  75.5304892  96.5002661
 190.6510000  76.5030000  96.9420000 191.5791500  76.9810745  94.9369185
 191.7504998  75.2698257  95.4309032 193.8917786  77.4439699  95.8470657
 193.9438866  76.1980970  94.5734997 193.7472520  75.7153657  97.3558065
 193.5530000  73.8360000 102.3850000 191.4990000  74.9830000 101.2690000
 191.6099214  76.2161885 102.1639740 190.7348707  73.8978749 102.0137234
 196.1148790  73.3055784  99.7327728 195.5482276  73.4250000 101.1580000
 194.1310000  73.4250000 101.1580000 194.2520000  72.4530000 101.1890000
 193.7271057  72.8761082 101.8852381 193.3333487  73.6854789 103.4437628
 192.6444599  76.5813217 102.1207677 191.3523039  75.9275211 103.1880313
 190.9524407  76.9991457 101.7882770 191.1419448  72.9240218 101.7207150
 189.6795256  73.9522270 101.7390774 190.8645857  74.0585068 103.0876063
 195.7239904  74.1184292  99.1099391 197.2081579  73.3623141  99.7547570
 195.8973253  74.3547113 101.6163684 195.8937374  72.6044533 101.7955830
 193.8266078  74.3565210 101.1580000 195.1020000  71.0000000 101.3300000
 191.6210000  76.6200000 110.1270000 192.0590000  76.2980000 108.8090000
 193.5756870  76.4310422 108.7410128 194.1818325  75.5304892 109.6652661
 190.6510000  76.5030000 110.1070000 191.5791500  76.9810745 108.1019185
 191.7504998  75.2698257 108.5959032 193.8917786  77.4439699 109.0120657
 193.9438866  76.1980970 107.7384997 193.7472520  75.7153657 110.5208065
 193.5530000  73.8360000 115.5510000 191.4990000  74.9830000 114.4350000
 191.6099214  76.2161885 115.3299740 190.7348707  73.8978749 115.1797234
 196.1148790  73.3055784 112.8987728 195.5482276  73.4250000 114.3240000
 194.1310000  73.4250000 114.3240000 194.2520000  72.4530000 114.3550000
 193.7271057  72.8761082 115.0512381 193.3333487  73.6854789 116.6097628
 192.6444599  76.5813217 115.2867677 191.3523039  75.9275211 116.3540313
 190.9524407  76.9991457 114.9542770 191.1419448  72.9240218 114.8867150
 189.6795256  73.9522270 114.9050774 190.8645857  74.0585068 116.2536063
 195.7239904  74.1184292 112.2759391 197.2081579  73.3623141 112.9207570
 195.8973253  74.3547113 114.7823684 195.8937374  72.6044533 114.9615830
 193.8266078  74.3565210 114.3240000 195.1020000  71.0000000 114.4960000
 191.6210000  76.6200000 123.2930000 192.0590000  76.2980000 121.9750000
 193.5756870  76.4310422 121.9070128 194.1818325  75.5304892 122.8312661
 190.6510000  76.5030000 123.2730000 191.5791500  76.9810745 121.2679185
 191.7504998  75.2698257 121.7619032 193.8917786  77.4439699 122.1780657
 193.9438866  76.1980970 120.9044997 193.7472520  75.7153657 123.6868065
 193.5530000  73.8360000 128.7160000 191.4990000  74.9830000 127.6000000
 191.6099214  76.2161885 128.4949740 190.7348707  73.8978749 128.3447234
 196.1148790  73.3055784 126.0637728 195.5482276  73.4250000 127.4890000
 194.1310000  73.4250000 127.4890000 194.2520000  72.4530000 127.5200000
 193.7271057  72.8761082 128.2162381 193.3333487  73.6854789 129.7747628
 192.6444599  76.5813217 128.4517677 191.3523039  75.9275211 129.5190313
 190.9524407  76.9991457 128.1192770 191.1419448  72.9240218 128.0517150
 189.6795256  73.9522270 128.0700774 190.8645857  74.0585068 129.4186063
 195.7239904  74.1184292 125.4409391 197.2081579  73.3623141 126.0857570
 195.8973253  74.3547113 127.9473684 195.8937374  72.6044533 128.1265830
 193.8266078  74.3565210 127.4890000 195.1020000  71.0000000 127.6610000
 191.6210000  76.6200000 136.4580000 192.0590000  76.2980000 135.1400000
 193.5756870  76.4310422 135.0720128 194.1818325  75.5304892 135.9962661
 190.6510000  76.5030000 136.4380000 191.5791500  76.9810745 134.4329185
 191.7504998  75.2698257 134.9269032 193.8917786  77.4439699 135.3430657
 193.9438866  76.1980970 134.0694997 193.7472520  75.7153657 136.8518065
 193.5530000  73.8360000 141.8810000 191.4990000  74.9830000 140.7650000
 191.6099214  76.2161885 141.6599740 190.7348707  73.8978749 141.5097234
 196.1148790  73.3055784 139.2287728 195.5482276  73.4250000 140.6540000
 194.1310000  73.4250000 140.6540000 194.2520000  72.4530000 140.6850000
 193.7271057  72.8761082 141.3812381 193.3333487  73.6854789 142.9397628
 192.6444599  76.5813217 141.6167677 191.3523039  75.9275211 142.6840313
 190.9524407  76.9991457 141.2842770 191.1419448  72.9240218 141.2167150
 189.6795256  73.9522270 141.2350774 190.8645857  74.0585068 142.5836063
 195.7239904  74.1184292 138.6059391 197.2081579  73.3623141 139.2507570
 195.8973253  74.3547113 141.1123684 195.8937374  72.6044533 141.2915830
 193.8266078  74.3565210 140.6540000 195.1020000  71.0000000 140.8260000
 191.6210000  76.6200000 149.6230000 192.0590000  76.2980000 148.3050000
 193.5756870  76.4310422 148.2370128 194.1818325  75.5304892 149.1612661
 190.6510000  76.5030000 149.6030000 191.5791500  76.9810745 147.5979185
 191.7504998  75.2698257 148.0919032 193.8917786  77.4439699 148.5080657
 193.9438866  76.1980970 147.2344997 193.7472520  75.7153657 150.0168065
 193.5530000  73.8360000 155.0460000 191.4990000  74.9830000 153.9300000
 191.6099214  76.2161885 154.8249740 190.7348707  73.8978749 154.6747234
 196.1148790  73.3055784 152.3937728 195.5482276  73.4250000 153.8190000
 194.1310000  73.4250000 153.8190000 194.2520000  72.4530000 153.8500000
 193.7271057  72.8761082 154.5462381 193.3333487  73.6854789 156.1047628
 192.6444599  76.5813217 154.7817677 191.3523039  75.9275211 155.8490313
 190.9524407  76.9991457 154.4492770 191.1419448  72.9240218 154.3817150
 189.6795256  73.9522270 154.4000774 190.8645857  74.0585068 155.7486063
 195.7239904  74.1184292 151.7709391 197.2081579  73.3623141 152.4157570
 195.8973253  74.3547113 154.2773684 195.8937374  72.6044533 154.4565830
 193.8266078  74.3565210 153.8190000 195.1020000  71.0000000 153.9910000
 191.6210000  76.6200000 162.7880000 192.0590000  76.2980000 161.4700000
 193.5756870  76.4310422 161.4020128 194.1818325  75.5304892 162.3262661
 190.6510000  76.5030000 162.7680000 191.5791500  76.9810745 160.7629185
 191.7504998  75.2698257 161.2569032 193.8917786  77.4439699 161.6730657
 193.9438866  76.1980970 160.3994997 193.7472520  75.7153657 163.1818065
 193.5530000  73.8360000 168.2110000 191.4990000  74.9830000 167.0950000
 191.6099214  76.2161885 167.9899740 190.7348707  73.8978749 167.8397234
 196.1148790  73.3055784 165.5587728 195.5482276  73.4250000 166.9840000
 194.1310000  73.4250000 166.9840000 194.2520000  72.4530000 167.0150000
 193.7271057  72.8761082 167.7112381 193.3333487  73.6854789 169.2697628
 192.6444599  76.5813217 167.9467677 191.3523039  75.9275211 169.0140313
 190.9524407  76.9991457 167.6142770 191.1419448  72.9240218 167.5467150
 189.6795256  73.9522270 167.5650774 190.8645857  74.0585068 168.9136063
 195.7239904  74.1184292 164.9359391 197.2081579  73.3623141 165.5807570
 195.8973253  74.3547113 167.4423684 195.8937374  72.6044533 167.6215830
 193.8266078  74.3565210 166.9840000 195.1020000  71.0000000 167.1560000
 191.6210000  76.6200000 175.9530000 192.0590000  76.2980000 174.6350000
 193.5756870  76.4310422 174.5670128 194.1818325  75.5304892 175.4912661
 190.6510000  76.5030000 175.9330000 191.5791500  76.9810745 173.9279185
 191.7504998  75.2698257 174.4219032 193.8917786  77.4439699 174.8380657
 193.9438866  76.1980970 173.5644997 193.7472520  75.7153657 176.3468065
 193.5530000  73.8360000 181.3770000 191.4990000  74.9830000 180.2610000
 191.6099214  76.2161885 181.1559740 190.7348707  73.8978749 181.0057234
 196.1148790  73.3055784 178.7247728 195.5482276  73.4250000 180.1500000
 194.1310000  73.4250000 180.1500000 194.2520000  72.4530000 180.1810000
 193.7271057  72.8761082 180.8772381 193.3333487  73.6854789 182.4357628
 192.6444599  76.5813217 181.1127677 191.3523039  75.9275211 182.1800313
 190.9524407  76.9991457 180.7802770 191.1419448  72.9240218 180.7127150
 189.6795256  73.9522270 180.7310774 190.8645857  74.0585068 182.0796063
 195.7239904  74.1184292 178.1019391 197.2081579  73.3623141 178.7467570
 195.8973253  74.3547113 180.6083684 195.8937374  72.6044533 180.7875830
 193.8266078  74.3565210 180.1500000 195.1020000  71.0000000 180.3220000
 191.6210000  76.6200000 189.1190000 192.0590000  76.2980000 187.8010000
 193.5756870  76.4310422 187.7330128 194.1818325  75.5304892 188.6572661
 190.6510000  76.5030000 189.0990000 191.5791500  76.9810745 187.0939185
 191.7504998  75.2698257 187.5879032 193.8917786  77.4439699 188.0040657
 193.9438866  76.1980970 186.7304997 193.7472520  75.7153657 189.5128065
 193.5530000  73.8360000 194.5420000 191.4990000  74.9830000 193.4260000
 191.6099214  76.2161885 194.3209740 190.7348707  73.8978749 194.1707234
 196.1148790  73.3055784 191.8897728 195.5482276  73.4250000 193.3150000
 194.1310000  73.4250000 193.3150000 194.2520000  72.4530000 193.3460000
 193.7271057  72.8761082 194.0422381 193.3333487  73.6854789 195.6007628
 192.6444599  76.5813217 194.2777677 191.3523039  75.9275211 195.3450313
 190.9524407  76.9991457 193.9452770 191.1419448  72.9240218 193.8777150
 189.6795256  73.9522270 193.8960774 190.8645857  74.0585068 195.2446063
 195.7239904  74.1184292 191.2669391 197.2081579  73.3623141 191.9117570
 195.8973253  74.3547113 193.7733684 195.8937374  72.6044533 193.9525830
 193.8266078  74.3565210 193.3150000 195.1020000  71.0000000 193.4870000
 191.6210000  76.6200000 202.2840000 192.0590000  76.2980000 200.9660000
 193.5756870  76.4310422 200.8980128 194.1818325  75.5304892 201.8222661
 190.6510000  76.5030000 202.2640000 191.5791500  76.9810745 200.2589185
 191.7504998  75.2698257 200.7529032 193.8917786  77.4439699 201.1690657
 193.9438866  76.1980970 199.8954997 193.7472520  75.7153657 202.6778065
 193.5530000  81.1520000  76.0550000 191.4990000  82.2990000  74.9390000
 191.6099214  83.5321885  75.8339740 190.7348707  81.2138749  75.6837234
 196.1148790  80.6215784  73.4027728 195.5482276  80.7410000  74.8280000
 194.1310000  80.7410000  74.8280000 194.2520000  79.7690000  74.8590000
 193.7271057  80.1921082  75.5552381 193.3333487  81.0014789  77.1137628
 192.6444599  83.8973217  75.7907677 191.3523039  83.2435211  76.8580313
 190.9524407  84.3151457  75.4582770 191.1419448  80.2400218  75.3907150
 189.6795256  81.2682270  75.4090774 190.8645857  81.3745068  76.7576063
 195.7239904  81.4344292  72.7799391 197.2081579  80.6783141  73.4247570
 195.8973253  81.6707113  75.2863684 195.8937374  79.9204533  75.4655830
 193.8266078  81.6725210  74.8280000 195.1020000  78.3160000  75.0000000
 191.6210000  83.9360000  83.7970000 192.0590000  83.6140000  82.4790000
 193.5756870  83.7470422  82.4110128 194.1818325  82.8464892  83.3352661
 190.6510000  83.8190000  83.7770000 191.5791500  84.2970745  81.7719185
 191.7504998  82.5858257  82.2659032 193.8917786  84.7599699  82.6820657
 193.9438866  83.5140970  81.4084997 193.7472520  83.0313657  84.1908065
 193.5530000  81.1520000  89.2200000 191.4990000  82.2990000  88.1040000
 191.6099214  83.5321885  88.9989740 190.7348707  81.2138749  88.8487234
 196.1148790  80.6215784  86.5677728 195.5482276  80.7410000  87.9930000
 194.1310000  80.7410000  87.9930000 194.2520000  79.7690000  88.0240000
 193.7271057  80.1921082  88.7202381 193.3333487  81.0014789  90.2787628
 192.6444599  83.8973217  88.9557677 191.3523039  83.2435211  90.0230313
 190.9524407  84.3151457  88.6232770 191.1419448  80.2400218  88.5557150
 189.6795256  81.2682270  88.5740774 190.8645857  81.3745068  89.9226063
 195.7239904  81.4344292  85.9449391 197.2081579  80.6783141  86.5897570
 195.8973253  81.6707113  88.4513684 195.8937374  79.9204533  88.6305830
 193.8266078  81.6725210  87.9930000 195.1020000  78.3160000  88.1650000
 191.6210000  83.9360000  96.9620000 192.0590000  83.6140000  95.6440000
 193.5756870  83.7470422  95.5760128 194.1818325  82.8464892  96.5002661
 190.6510000  83.8190000  96.9420000 191.5791500  84.2970745  94.9369185
 191.7504998  82.5858257  95.4309032 193.8917786  84.7599699  95.8470657
 193.9438866  83.5140970  94.5734997 193.7472520  83.0313657  97.3558065
 193.5530000  81.1520000 102.3850000 191.4990000  82.2990000 101.2690000
 191.6099214  83.5321885 102.1639740 190.7348707  81.2138749 102.0137234
 196.1148790  80.6215784  99.7327728 195.5482276  80.7410000 101.1580000
 194.1310000  80.7410000 101.1580000 194.2520000  79.7690000 101.1890000
 193.7271057  80.1921082 101.8852381 193.3333487  81.0014789 103.4437628
 192.6444599  83.8973217 102.1207677 191.3523039  83.2435211 103.1880313
 190.9524407  84.3151457 101.7882770 191.1419448  80.2400218 101.7207150
 189.6795256  81.2682270 101.7390774 190.8645857  81.3745068 103.0876063
 195.7239904  81.4344292  99.1099391 197.2081579  80.6783141  99.7547570
 195.8973253  81.6707113 101.6163684 195.8937374  79.9204533 101.7955830
 193.8266078  81.6725210 101.1580000 195.1020000  78.3160000 101.3300000
 191.6210000  83.9360000 110.1270000 192.0590000  83.6140000 108.8090000
 193.5756870  83.7470422 108.7410128 194.1818325  82.8464892 109.6652661
 190.6510000  83.8190000 110.1070000 191.5791500  84.2970745 108.1019185
 191.7504998  82.5858257 108.5959032 193.8917786  84.7599699 109.0120657
 193.9438866  83.5140970 107.7384997 193.7472520  83.0313657 110.5208065
 193.5530000  81.1520000 115.5510000 191.4990000  82.2990000 114.4350000
 191.6099214  83.5321885 115.3299740 190.7348707  81.2138749 115.1797234
 196.1148790  80.6215784 112.8987728 195.5482276  80.7410000 114.3240000
 194.1310000  80.7410000 114.3240000 194.2520000  79.7690000 114.3550000
 193.7271057  80.1921082 115.0512381 193.3333487  81.0014789 116.6097628
 192.6444599  83.8973217 115.2867677 191.3523039  83.2435211 116.3540313
 190.9524407  84.3151457 114.9542770 191.1419448  80.2400218 114.8867150
 189.6795256  81.2682270 114.9050774 190.8645857  81.3745068 116.2536063
 195.7239904  81.4344292 112.2759391 197.2081579  80.6783141 112.9207570
 195.8973253  81.6707113 114.7823684 195.8937374  79.9204533 114.9615830
 193.8266078  81.6725210 114.3240000 195.1020000  78.3160000 114.4960000
 191.6210000  83.9360000 123.2930000 192.0590000  83.6140000 121.9750000
 193.5756870  83.7470422 121.9070128 194.1818325  82.8464892 122.8312661
 190.6510000  83.8190000 123.2730000 191.5791500  84.2970745 121.2679185
 191.7504998  82.5858257 121.7619032 193.8917786  84.7599699 122.1780657
 193.9438866  83.5140970 120.9044997 193.7472520  83.0313657 123.6868065
 193.5530000  81.1520000 128.7160000 191.4990000  82.2990000 127.6000000
 191.6099214  83.5321885 128.4949740 190.7348707  81.2138749 128.3447234
 196.1148790  80.6215784 126.0637728 195.5482276  80.7410000 127.4890000
 194.1310000  80.7410000 127.4890000 194.2520000  79.7690000 127.5200000
 193.7271057  80.1921082 128.2162381 193.3333487  81.0014789 129.7747628
 192.6444599  83.8973217 128.4517677 191.3523039  83.2435211 129.5190313
 190.9524407  84.3151457 128.1192770 191.1419448  80.2400218 128.0517150
 189.6795256  81.2682270 128.0700774 190.8645857  81.3745068 129.4186063
 195.7239904  81.4344292 125.4409391 197.2081579  80.6783141 126.0857570
 195.8973253  81.6707113 127.9473684 195.8937374  79.9204533 128.1265830
 193.8266078  81.6725210 127.4890000 195.1020000  78.3160000 127.6610000
 191.6210000  83.9360000 136.4580000 192.0590000  83.6140000 135.1400000
 193.5756870  83.7470422 135.0720128 194.1818325  82.8464892 135.9962661
 190.6510000  83.8190000 136.4380000 191.5791500  84.2970745 134.4329185
 191.7504998  82.5858257 134.9269032 193.8917786  84.7599699 135.3430657
 193.9438866  83.5140970 134.0694997 193.7472520  83.0313657 136.8518065
 193.5530000  81.1520000 141.8810000 191.4990000  82.2990000 140.7650000
 191.6099214  83.5321885 141.6599740 190.7348707  81.2138749 141.5097234
 196.1148790  80.6215784 139.2287728 195.5482276  80.7410000 140.6540000
 194.1310000  80.7410000 140.6540000 194.2520000  79.7690000 140.6850000
 193.7271057  80.1921082 141.3812381 193.3333487  81.0014789 142.9397628
 192.6444599  83.8973217 141.6167677 191.3523039  83.2435211 142.6840313
 190.9524407  84.3151457 141.2842770 191.1419448  80.2400218 141.2167150
 189.6795256  81.2682270 141.2350774 190.8645857  81.3745068 142.5836063
 195.7239904  81.4344292 138.6059391 197.2081579  80.6783141 139.2507570
 195.8973253  81.6707113 141.1123684 195.8937374  79.9204533 141.2915830
 193.8266078  81.6725210 140.6540000 195.1020000  78.3160000 140.8260000
 191.6210000  83.9360000 149.6230000 192.0590000  83.6140000 148.3050000
 193.5756870  83.7470422 148.2370128 194.1818325  82.8464892 149.1612661
 190.6510000  83.8190000 149.6030000 191.5791500  84.2970745 147.5979185
 191.7504998  82.5858257 148.0919032 193.8917786  84.7599699 148.5080657
 193.9438866  83.5140970 147.2344997 193.7472520  83.0313657 150.0168065
 193.5530000  81.1520000 155.0460000 191.4990000  82.2990000 153.9300000
 191.6099214  83.5321885 154.8249740 190.7348707  81.2138749 154.6747234
 196.1148790  80.6215784 152.3937728 195.5482276  80.7410000 153.8190000
 194.1310000  80.7410000 153.8190000 194.2520000  79.7690000 153.8500000
 193.7271057  80.1921082 154.5462381 193.3333487  81.0014789 156.1047628
 192.6444599  83.8973217 154.7817677 191.3523039  83.2435211 155.8490313
 190.9524407  84.3151457 154.4492770 191.1419448  80.2400218 154.3817150
 189.6795256  81.2682270 154.4000774 190.8645857  81.3745068 155.7486063
 195.7239904  81.4344292 151.7709391 197.2081579  80.6783141 152.4157570
 195.8973253  81.6707113 154.2773684 195.8937374  79.9204533 154.4565830
 193.8266078  81.6725210 153.8190000 195.1020000  78.3160000 153.9910000
 191.6210000  83.9360000 162.7880000 192.0590000  83.6140000 161.4700000
 193.5756870  83.7470422 161.4020128 194.1818325  82.8464892 162.3262661
 190.6510000  83.8190000 162.7680000 191.5791500  84.2970745 160.7629185
 191.7504998  82.5858257 161.2569032 193.8917786  84.7599699 161.6730657
 193.9438866  83.5140970 160.3994997 193.7472520  83.0313657 163.1818065
 193.5530000  81.1520000 168.2110000 191.4990000  82.2990000 167.0950000
 191.6099214  83.5321885 167.9899740 190.7348707  81.2138749 167.8397234
 196.1148790  80.6215784 165.5587728 195.5482276  80.7410000 166.9840000
 194.1310000  80.7410000 166.9840000 194.2520000  79.7690000 167.0150000
 193.7271057  80.1921082 167.7112381 193.3333487  81.0014789 169.2697628
 192.6444599  83.8973217 167.9467677 191.3523039  83.2435211 169.0140313
 190.9524407  84.3151457 167.6142770 191.1419448  80.2400218 167.5467150
 189.6795256  81.2682270 167.5650774 190.8645857  81.3745068 168.9136063
 195.7239904  81.4344292 164.9359391 197.2081579  80.6783141 165.5807570
 195.8973253  81.6707113 167.4423684 195.8937374  79.9204533 167.6215830
 193.8266078  81.6725210 166.9840000 195.1020000  78.3160000 167.1560000
 191.6210000  83.9360000 175.9530000 192.0590000  83.6140000 174.6350000
 193.5756870  83.7470422 174.5670128 194.1818325  82.8464892 175.4912661
 190.6510000  83.8190000 175.9330000 191.5791500  84.2970745 173.9279185
 191.7504998  82.5858257 174.4219032 193.8917786  84.7599699 174.8380657
 193.9438866  83.5140970 173.5644997 193.7472520  83.0313657 176.3468065
 193.5530000  81.1520000 181.3770000 191.4990000  82.2990000 180.2610000
 191.6099214  83.5321885 181.1559740 190.7348707  81.2138749 181.0057234
 196.1148790  80.6215784 178.7247728 195.5482276  80.7410000 180.1500000
 194.1310000  80.7410000 180.1500000 194.2520000  79.7690000 180.1810000
 193.7271057  80.1921082 180.8772381 193.3333487  81.0014789 182.4357628
 192.6444599  83.8973217 181.1127677 191.3523039  83.2435211 182.1800313
 190.9524407  84.3151457 180.7802770 191.1419448  80.2400218 180.7127150
 189.6795256  81.2682270 180.7310774 190.8645857  81.3745068 182.0796063
 195.7239904  81.4344292 178.1019391 197.2081579  80.6783141 178.7467570
 195.8973253  81.6707113 180.6083684 195.8937374  79.9204533 180.7875830
 193.8266078  81.6725210 180.1500000 195.1020000  78.3160000 180.3220000
 191.6210000  83.9360000 189.1190000 192.0590000  83.6140000 187.8010000
 193.5756870  83.7470422 187.7330128 194.1818325  82.8464892 188.6572661
 190.6510000  83.8190000 189.0990000 191.5791500  84.2970745 187.0939185
 191.7504998  82.5858257 187.5879032 193.8917786  84.7599699 188.0040657
 193.9438866  83.5140970 186.7304997 193.7472520  83.0313657 189.5128065
 193.5530000  81.1520000 194.5420000 191.4990000  82.2990000 193.4260000
 191.6099214  83.5321885 194.3209740 190.7348707  81.2138749 194.1707234
 196.1148790  80.6215784 191.8897728 195.5482276  80.7410000 193.3150000
 194.1310000  80.7410000 193.3150000 194.2520000  79.7690000 193.3460000
 193.7271057  80.1921082 194.0422381 193.3333487  81.0014789 195.6007628
 192.6444599  83.8973217 194.2777677 191.3523039  83.2435211 195.3450313
 190.9524407  84.3151457 193.9452770 191.1419448  80.2400218 193.8777150
 189.6795256  81.2682270 193.8960774 190.8645857  81.3745068 195.2446063
 195.7239904  81.4344292 191.2669391 197.2081579  80.6783141 191.9117570
 195.8973253  81.6707113 193.7733684 195.8937374  79.9204533 193.9525830
 193.8266078  81.6725210 193.3150000 195.1020000  78.3160000 193.4870000
 191.6210000  83.9360000 202.2840000 192.0590000  83.6140000 200.9660000
 193.5756870  83.7470422 200.8980128 194.1818325  82.8464892 201.8222661
 190.6510000  83.8190000 202.2640000 191.5791500  84.2970745 200.2589185
 191.7504998  82.5858257 200.7529032 193.8917786  84.7599699 201.1690657
 193.9438866  83.5140970 199.8954997 193.7472520  83.0313657 202.6778065
 193.5530000  88.4690000  76.0550000 191.4990000  89.6160000  74.9390000
 191.6099214  90.8491885  75.8339740 190.7348707  88.5308749  75.6837234
 196.1148790  87.9385784  73.4027728 195.5482276  88.0580000  74.8280000
 194.1310000  88.0580000  74.8280000 194.2520000  87.0860000  74.8590000
 193.7271057  87.5091082  75.5552381 193.3333487  88.3184789  77.1137628
 192.6444599  91.2143217  75.7907677 191.3523039  90.5605211  76.8580313
 190.9524407  91.6321457  75.4582770 191.1419448  87.5570218  75.3907150
 189.6795256  88.5852270  75.4090774 190.8645857  88.6915068  76.7576063
 195.7239904  88.7514292  72.7799391 197.2081579  87.9953141  73.4247570
 195.8973253  88.9877113  75.2863684 195.8937374  87.2374533  75.4655830
 193.8266078  88.9895210  74.8280000 195.1020000  85.6330000  75.0000000
 191.6210000  91.2530000  83.7970000 192.0590000  90.9310000  82.4790000
 193.5756870  91.0640422  82.4110128 194.1818325  90.1634892  83.3352661
 190.6510000  91.1360000  83.7770000 191.5791500  91.6140745  81.7719185
 191.7504998  89.9028257  82.2659032 193.8917786  92.0769699  82.6820657
 193.9438866  90.8310970  81.4084997 193.7472520  90.3483657  84.1908065
 193.5530000  88.4690000  89.2200000 191.4990000  89.6160000  88.1040000
 191.6099214  90.8491885  88.9989740 190.7348707  88.5308749  88.8487234
 196.1148790  87.9385784  86.5677728 195.5482276  88.0580000  87.9930000
 194.1310000  88.0580000  87.9930000 194.2520000  87.0860000  88.0240000
 193.7271057  87.5091082  88.7202381 193.3333487  88.3184789  90.2787628
 192.6444599  91.2143217  88.9557677 191.3523039  90.5605211  90.0230313
 190.9524407  91.6321457  88.6232770 191.1419448  87.5570218  88.5557150
 189.6795256  88.5852270  88.5740774 190.8645857  88.6915068  89.9226063
 195.7239904  88.7514292  85.9449391 197.2081579  87.9953141  86.5897570
 195.8973253  88.9877113  88.4513684 195.8937374  87.2374533  88.6305830
 193.8266078  88.9895210  87.9930000 195.1020000  85.6330000  88.1650000
 191.6210000  91.2530000  96.9620000 192.0590000  90.9310000  95.6440000
 193.5756870  91.0640422  95.5760128 194.1818325  90.1634892  96.5002661
 190.6510000  91.1360000  96.9420000 191.5791500  91.6140745  94.9369185
 191.7504998  89.9028257  95.4309032 193.8917786  92.0769699  95.8470657
 193.9438866  90.8310970  94.5734997 193.7472520  90.3483657  97.3558065
 193.5530000  88.4690000 102.3850000 191.4990000  89.6160000 101.2690000
 191.6099214  90.8491885 102.1639740 190.7348707  88.5308749 102.0137234
 196.1148790  87.9385784  99.7327728 195.5482276  88.0580000 101.1580000
 194.1310000  88.0580000 101.1580000 194.2520000  87.0860000 101.1890000
 193.7271057  87.5091082 101.8852381 193.3333487  88.3184789 103.4437628
 192.6444599  91.2143217 102.1207677 191.3523039  90.5605211 103.1880313
 190.9524407  91.6321457 101.7882770 191.1419448  87.5570218 101.7207150
 189.6795256  88.5852270 101.7390774 190.8645857  88.6915068 103.0876063
 195.7239904  88.7514292  99.1099391 197.2081579  87.9953141  99.7547570
 195.8973253  88.9877113 101.6163684 195.8937374  87.2374533 101.7955830
 193.8266078  88.9895210 101.1580000 195.1020000  85.6330000 101.3300000
 191.6210000  91.2530000 110.1270000 192.0590000  90.9310000 108.8090000
 193.5756870  91.0640422 108.7410128 194.1818325  90.1634892 109.6652661
 190.6510000  91.1360000 110.1070000 191.5791500  91.6140745 108.1019185
 191.7504998  89.9028257 108.5959032 193.8917786  92.0769699 109.0120657
 193.9438866  90.8310970 107.7384997 193.7472520  90.3483657 110.5208065
 193.5530000  88.4690000 115.5510000 191.4990000  89.6160000 114.4350000
 191.6099214  90.8491885 115.3299740 190.7348707  88.5308749 115.1797234
 196.1148790  87.9385784 112.8987728 195.5482276  88.0580000 114.3240000
 194.1310000  88.0580000 114.3240000 194.2520000  87.0860000 114.3550000
 193.7271057  87.5091082 115.0512381 193.3333487  88.3184789 116.6097628
 192.6444599  91.2143217 115.2867677 191.3523039  90.5605211 116.3540313
 190.9524407  91.6321457 114.9542770 191.1419448  87.5570218 114.8867150
 189.6795256  88.5852270 114.9050774 190.8645857  88.6915068 116.2536063
 195.7239904  88.7514292 112.2759391 197.2081579  87.9953141 112.9207570
 195.8973253  88.9877113 114.7823684 195.8937374  87.2374533 114.9615830
 193.8266078  88.9895210 114.3240000 195.1020000  85.6330000 114.4960000
 191.6210000  91.2530000 123.2930000 192.0590000  90.9310000 121.9750000
 193.5756870  91.0640422 121.9070128 194.1818325  90.1634892 122.8312661
 190.6510000  91.1360000 123.2730000 191.5791500  91.6140745 121.2679185
 191.7504998  89.9028257 121.7619032 193.8917786  92.0769699 122.1780657
 193.9438866  90.8310970 120.9044997 193.7472520  90.3483657 123.6868065
 193.5530000  88.4690000 128.7160000 191.4990000  89.6160000 127.6000000
 191.6099214  90.8491885 128.4949740 190.7348707  88.5308749 128.3447234
 196.1148790  87.9385784 126.0637728 195.5482276  88.0580000 127.4890000
 194.1310000  88.0580000 127.4890000 194.2520000  87.0860000 127.5200000
 193.7271057  87.5091082 128.2162381 193.3333487  88.3184789 129.7747628
 192.6444599  91.2143217 128.4517677 191.3523039  90.5605211 129.5190313
 190.9524407  91.6321457 128.1192770 191.1419448  87.5570218 128.0517150
 189.6795256  88.5852270 128.0700774 190.8645857  88.6915068 129.4186063
 195.7239904  88.7514292 125.4409391 197.2081579  87.9953141 126.0857570
 195.8973253  88.9877113 127.9473684 195.8937374  87.2374533 128.1265830
 193.8266078  88.9895210 127.4890000 195.1020000  85.6330000 127.6610000
 191.6210000  91.2530000 136.4580000 192.0590000  90.9310000 135.1400000
 193.5756870  91.0640422 135.0720128 194.1818325  90.1634892 135.9962661
 190.6510000  91.1360000 136.4380000 191.5791500  91.6140745 134.4329185
 191.7504998  89.9028257 134.9269032 193.8917786  92.0769699 135.3430657
 193.9438866  90.8310970 134.0694997 193.7472520  90.3483657 136.8518065
 193.5530000  88.4690000 141.8810000 191.4990000  89.6160000 140.7650000
 191.6099214  90.8491885 141.6599740 190.7348707  88.5308749 141.5097234
 196.1148790  87.9385784 139.2287728 195.5482276  88.0580000 140.6540000
 194.1310000  88.0580000 140.6540000 194.2520000  87.0860000 140.6850000
 193.7271057  87.5091082 141.3812381 193.3333487  88.3184789 142.9397628
 192.6444599  91.2143217 141.6167677 191.3523039  90.5605211 142.6840313
 190.9524407  91.6321457 141.2842770 191.1419448  87.5570218 141.2167150
 189.6795256  88.5852270 141.2350774 190.8645857  88.6915068 142.5836063
 195.7239904  88.7514292 138.6059391 197.2081579  87.9953141 139.2507570
 195.8973253  88.9877113 141.1123684 195.8937374  87.2374533 141.2915830
 193.8266078  88.9895210 140.6540000 195.1020000  85.6330000 140.8260000
 191.6210000  91.2530000 149.6230000 192.0590000  90.9310000 148.3050000
 193.5756870  91.0640422 148.2370128 194.1818325  90.1634892 149.1612661
 190.6510000  91.1360000 149.6030000 191.5791500  91.6140745 147.5979185
 191.7504998  89.9028257 148.0919032 193.8917786  92.0769699 148.5080657
 193.9438866  90.8310970 147.2344997 193.7472520  90.3483657 150.0168065
 193.5530000  88.4690000 155.0460000 191.4990000  89.6160000 153.9300000
 191.6099214  90.8491885 154.8249740 190.7348707  88.5308749 154.6747234
 196.1148790  87.9385784 152.3937728 195.5482276  88.0580000 153.8190000
 194.1310000  88.0580000 153.8190000 194.2520000  87.0860000 153.8500000
 193.7271057  87.5091082 154.5462381 193.3333487  88.3184789 156.1047628
 192.6444599  91.2143217 154.7817677 191.3523039  90.5605211 155.8490313
 190.9524407  91.6321457 154.4492770 191.1419448  87.5570218 154.3817150
 189.6795256  88.5852270 154.4000774 190.8645857  88.6915068 155.7486063
 195.7239904  88.7514292 151.7709391 197.2081579  87.9953141 152.4157570
 195.8973253  88.9877113 154.2773684 195.8937374  87.2374533 154.4565830
 193.8266078  88.9895210 153.8190000 195.1020000  85.6330000 153.9910000
 191.6210000  91.2530000 162.7880000 192.0590000  90.9310000 161.4700000
 193.5756870  91.0640422 161.4020128 194.1818325  90.1634892 162.3262661
 190.6510000  91.1360000 162.7680000 191.5791500  91.6140745 160.7629185
 191.7504998  89.9028257 161.2569032 193.8917786  92.0769699 161.6730657
 193.9438866  90.8310970 160.3994997 193.7472520  90.3483657 163.1818065
 193.5530000  88.4690000 168.2110000 191.4990000  89.6160000 167.0950000
 191.6099214  90.8491885 167.9899740 190.7348707  88.5308749 167.8397234
 196.1148790  87.9385784 165.5587728 195.5482276  88.0580000 166.9840000
 194.1310000  88.0580000 166.9840000 194.2520000  87.0860000 167.0150000
 193.7271057  87.5091082 167.7112381 193.3333487  88.3184789 169.2697628
 192.6444599  91.2143217 167.9467677 191.3523039  90.5605211 169.0140313
 190.9524407  91.6321457 167.6142770 191.1419448  87.5570218 167.5467150
 189.6795256  88.5852270 167.5650774 190.8645857  88.6915068 168.9136063
 195.7239904  88.7514292 164.9359391 197.2081579  87.9953141 165.5807570
 195.8973253  88.9877113 167.4423684 195.8937374  87.2374533 167.6215830
 193.8266078  88.9895210 166.9840000 195.1020000  85.6330000 167.1560000
 191.6210000  91.2530000 175.9530000 192.0590000  90.9310000 174.6350000
 193.5756870  91.0640422 174.5670128 194.1818325  90.1634892 175.4912661
 190.6510000  91.1360000 175.9330000 191.5791500  91.6140745 173.9279185
 191.7504998  89.9028257 174.4219032 193.8917786  92.0769699 174.8380657
 193.9438866  90.8310970 173.5644997 193.7472520  90.3483657 176.3468065
 193.5530000  88.4690000 181.3770000 191.4990000  89.6160000 180.2610000
 191.6099214  90.8491885 181.1559740 190.7348707  88.5308749 181.0057234
 196.1148790  87.9385784 178.7247728 195.5482276  88.0580000 180.1500000
 194.1310000  88.0580000 180.1500000 194.2520000  87.0860000 180.1810000
 193.7271057  87.5091082 180.8772381 193.3333487  88.3184789 182.4357628
 192.6444599  91.2143217 181.1127677 191.3523039  90.5605211 182.1800313
 190.9524407  91.6321457 180.7802770 191.1419448  87.5570218 180.7127150
 189.6795256  88.5852270 180.7310774 190.8645857  88.6915068 182.0796063
 195.7239904  88.7514292 178.1019391 197.2081579  87.9953141 178.7467570
 195.8973253  88.9877113 180.6083684 195.8937374  87.2374533 180.7875830
 193.8266078  88.9895210 180.1500000 195.1020000  85.6330000 180.3220000
 191.6210000  91.2530000 189.1190000 192.0590000  90.9310000 187.8010000
 193.5756870  91.0640422 187.7330128 194.1818325  90.1634892 188.6572661
 190.6510000  91.1360000 189.0990000 191.5791500  91.6140745 187.0939185
 191.7504998  89.9028257 187.5879032 193.8917786  92.0769699 188.0040657
 193.9438866  90.8310970 186.7304997 193.7472520  90.3483657 189.5128065
 193.5530000  88.4690000 194.5420000 191.4990000  89.6160000 193.4260000
 191.6099214  90.8491885 194.3209740 190.7348707  88.5308749 194.1707234
 196.1148790  87.9385784 191.8897728 195.5482276  88.0580000 193.3150000
 194.1310000  88.0580000 193.3150000 194.2520000  87.0860000 193.3460000
 193.7271057  87.5091082 194.0422381 193.3333487  88.3184789 195.6007628
 192.6444599  91.2143217 194.2777677 191.3523039  90.5605211 195.3450313
 190.9524407  91.6321457 193.9452770 191.1419448  87.5570218 193.8777150
 189.6795256  88.5852270 193.8960774 190.8645857  88.6915068 195.2446063
 195.7239904  88.7514292 191.2669391 197.2081579  87.9953141 191.9117570
 195.8973253  88.9877113 193.7733684 195.8937374  87.2374533 193.9525830
 193.8266078  88.9895210 193.3150000 195.1020000  85.6330000 193.4870000
 191.6210000  91.2530000 202.2840000 192.0590000  90.9310000 200.9660000
 193.5756870  91.0640422 200.8980128 194.1818325  90.1634892 201.8222661
 190.6510000  91.1360000 202.2640000 191.5791500  91.6140745 200.2589185
 191.7504998  89.9028257 200.7529032 193.8917786  92.0769699 201.1690657
 193.9438866  90.8310970 199.8954997 193.7472520  90.3483657 202.6778065
 193.5530000  95.7850000  76.0550000 191.4990000  96.9320000  74.9390000
 191.6099214  98.1651885  75.8339740 190.7348707  95.8468749  75.6837234
 196.1148790  95.2545784  73.4027728 195.5482276  95.3740000  74.8280000
 194.1310000  95.3740000  74.8280000 194.2520000  94.4020000  74.8590000
 193.7271057  94.8251082  75.5552381 193.3333487  95.6344789  77.1137628
 192.6444599  98.5303217  75.7907677 191.3523039  97.8765211  76.8580313
 190.9524407  98.9481457  75.4582770 191.1419448  94.8730218  75.3907150
 189.6795256  95.9012270  75.4090774 190.8645857  96.0075068  76.7576063
 195.7239904  96.0674292  72.7799391 197.2081579  95.3113141  73.4247570
 195.8973253  96.3037113  75.2863684 195.8937374  94.5534533  75.4655830
 193.8266078  96.3055210  74.8280000 195.1020000  92.9490000  75.0000000
 191.6210000  98.5690000  83.7970000 192.0590000  98.2470000  82.4790000
 193.5756870  98.3800422  82.4110128 194.1818325  97.4794892  83.3352661
 190.6510000  98.4520000  83.7770000 191.5791500  98.9300745  81.7719185
 191.7504998  97.2188257  82.2659032 193.8917786  99.3929699  82.6820657
 193.9438866  98.1470970  81.4084997 193.7472520  97.6643657  84.1908065
 193.5530000  95.7850000  89.2200000 191.4990000  96.9320000  88.1040000
 191.6099214  98.1651885  88.9989740 190.7348707  95.8468749  88.8487234
 196.1148790  95.2545784  86.5677728 195.5482276  95.3740000  87.9930000
 194.1310000  95.3740000  87.9930000 194.2520000  94.4020000  88.0240000
 193.7271057  94.8251082  88.7202381 193.3333487  95.6344789  90.2787628
 192.6444599  98.5303217  88.9557677 191.3523039  97.8765211  90.0230313
 190.9524407  98.9481457  88.6232770 191.1419448  94.8730218  88.5557150
 189.6795256  95.9012270  88.5740774 190.8645857  96.0075068  89.9226063
 195.7239904  96.0674292  85.9449391 197.2081579  95.3113141  86.5897570
 195.8973253  96.3037113  88.4513684 195.8937374  94.5534533  88.6305830
 193.8266078  96.3055210  87.9930000 195.1020000  92.9490000  88.1650000
 191.6210000  98.5690000  96.9620000 192.0590000  98.2470000  95.6440000
 193.5756870  98.3800422  95.5760128 194.1818325  97.4794892  96.5002661
 190.6510000  98.4520000  96.9420000 191.5791500  98.9300745  94.9369185
 191.7504998  97.2188257  95.4309032 193.8917786  99.3929699  95.8470657
 193.9438866  98.1470970  94.5734997 193.7472520  97.6643657  97.3558065
 193.5530000  95.7850000 102.3850000 191.4990000  96.9320000 101.2690000
 191.6099214  98.1651885 102.1639740 190.7348707  95.8468749 102.0137234
 196.1148790  95.2545784  99.7327728 195.5482276  95.3740000 101.1580000
 194.1310000  95.3740000 101.1580000 194.2520000  94.4020000 101.1890000
 193.7271057  94.8251082 101.8852381 193.3333487  95.6344789 103.4437628
 192.6444599  98.5303217 102.1207677 191.3523039  97.8765211 103.1880313
 190.9524407  98.9481457 101.7882770 191.1419448  94.8730218 101.7207150
 189.6795256  95.9012270 101.7390774 190.8645857  96.0075068 103.0876063
 195.7239904  96.0674292  99.1099391 197.2081579  95.3113141  99.7547570
 195.8973253  96.3037113 101.6163684 195.8937374  94.5534533 101.7955830
 193.8266078  96.3055210 101.1580000 195.1020000  92.9490000 101.3300000
 191.6210000  98.5690000 110.1270000 192.0590000  98.2470000 108.8090000
 193.5756870  98.3800422 108.7410128 194.1818325  97.4794892 109.6652661
 190.6510000  98.4520000 110.1070000 191.5791500  98.9300745 108.1019185
 191.7504998  97.2188257 108.5959032 193.8917786  99.3929699 109.0120657
 193.9438866  98.1470970 107.7384997 193.7472520  97.6643657 110.5208065
 193.5530000  95.7850000 115.5510000 191.4990000  96.9320000 114.4350000
 191.6099214  98.1651885 115.3299740 190.7348707  95.8468749 115.1797234
 196.1148790  95.2545784 112.8987728 195.5482276  95.3740000 114.3240000
 194.1310000  95.3740000 114.3240000 194.2520000  94.4020000 114.3550000
 193.7271057  94.8251082 115.0512381 193.3333487  95.6344789 116.6097628
 192.6444599  98.5303217 115.2867677 191.3523039  97.8765211 116.3540313
 190.9524407  98.9481457 114.9542770 191.1419448  94.8730218 114.8867150
 189.6795256  95.9012270 114.9050774 190.8645857  96.0075068 116.2536063
 195.7239904  96.0674292 112.2759391 197.2081579  95.3113141 112.9207570
 195.8973253  96.3037113 114.7823684 195.8937374  94.5534533 114.9615830
 193.8266078  96.3055210 114.3240000 195.1020000  92.9490000 114.4960000
 191.6210000  98.5690000 123.2930000 192.0590000  98.2470000 121.9750000
 193.5756870  98.3800422 121.9070128 194.1818325  97.4794892 122.8312661
 190.6510000  98.4520000 123.2730000 191.5791500  98.9300745 121.2679185
 191.7504998  97.2188257 121.7619032 193.8917786  99.3929699 122.1780657
 193.9438866  98.1470970 120.9044997 193.7472520  97.6643657 123.6868065
 193.5530000  95.7850000 128.7160000 191.4990000  96.9320000 127.6000000
 191.6099214  98.1651885 128.4949740 190.7348707  95.8468749 128.3447234
 196.1148790  95.2545784 126.0637728 195.5482276  95.3740000 127.4890000
 194.1310000  95.3740000 127.4890000 194.2520000  94.4020000 127.5200000
 193.7271057  94.8251082 128.2162381 193.3333487  95.6344789 129.7747628
 192.6444599  98.5303217 128.4517677 191.3523039  97.8765211 129.5190313
 190.9524407  98.9481457 128.1192770 191.1419448  94.8730218 128.0517150
 189.6795256  95.9012270 128.0700774 190.8645857  96.0075068 129.4186063
 195.7239904  96.0674292 125.4409391 197.2081579  95.3113141 126.0857570
 195.8973253  96.3037113 127.9473684 195.8937374  94.5534533 128.1265830
 193.8266078  96.3055210 127.4890000 195.1020000  92.9490000 127.6610000
 191.6210000  98.5690000 136.4580000 192.0590000  98.2470000 135.1400000
 193.5756870  98.3800422 135.0720128 194.1818325  97.4794892 135.9962661
 190.6510000  98.4520000 136.4380000 191.5791500  98.9300745 134.4329185
 191.7504998  97.2188257 134.9269032 193.8917786  99.3929699 135.3430657
 193.9438866  98.1470970 134.0694997 193.7472520  97.6643657 136.8518065
 193.5530000  95.7850000 141.8810000 191.4990000  96.9320000 140.7650000
 191.6099214  98.1651885 141.6599740 190.7348707  95.8468749 141.5097234
 196.1148790  95.2545784 139.2287728 195.5482276  95.3740000 140.6540000
 194.1310000  95.3740000 140.6540000 194.2520000  94.4020000 140.6850000
 193.7271057  94.8251082 141.3812381 193.3333487  95.6344789 142.9397628
 192.6444599  98.5303217 141.6167677 191.3523039  97.8765211 142.6840313
 190.9524407  98.9481457 141.2842770 191.1419448  94.8730218 141.2167150
 189.6795256  95.9012270 141.2350774 190.8645857  96.0075068 142.5836063
 195.7239904  96.0674292 138.6059391 197.2081579  95.3113141 139.2507570
 195.8973253  96.3037113 141.1123684 195.8937374  94.5534533 141.2915830
 193.8266078  96.3055210 140.6540000 195.1020000  92.9490000 140.8260000
 191.6210000  98.5690000 149.6230000 192.0590000  98.2470000 148.3050000
 193.5756870  98.3800422 148.2370128 194.1818325  97.4794892 149.1612661
 190.6510000  98.4520000 149.6030000 191.5791500  98.9300745 147.5979185
 191.7504998  97.2188257 148.0919032 193.8917786  99.3929699 148.5080657
 193.9438866  98.1470970 147.2344997 193.7472520  97.6643657 150.0168065
 193.5530000  95.7850000 155.0460000 191.4990000  96.9320000 153.9300000
 191.6099214  98.1651885 154.8249740 190.7348707  95.8468749 154.6747234
 196.1148790  95.2545784 152.3937728 195.5482276  95.3740000 153.8190000
 194.1310000  95.3740000 153.8190000 194.2520000  94.4020000 153.8500000
 193.7271057  94.8251082 154.5462381 193.3333487  95.6344789 156.1047628
 192.6444599  98.5303217 154.7817677 191.3523039  97.8765211 155.8490313
 190.9524407  98.9481457 154.4492770 191.1419448  94.8730218 154.3817150
 189.6795256  95.9012270 154.4000774 190.8645857  96.0075068 155.7486063
 195.7239904  96.0674292 151.7709391 197.2081579  95.3113141 152.4157570
 195.8973253  96.3037113 154.2773684 195.8937374  94.5534533 154.4565830
 193.8266078  96.3055210 153.8190000 195.1020000  92.9490000 153.9910000
 191.6210000  98.5690000 162.7880000 192.0590000  98.2470000 161.4700000
 193.5756870  98.3800422 161.4020128 194.1818325  97.4794892 162.3262661
 190.6510000  98.4520000 162.7680000 191.5791500  98.9300745 160.7629185
 191.7504998  97.2188257 161.2569032 193.8917786  99.3929699 161.6730657
 193.9438866  98.1470970 160.3994997 193.7472520  97.6643657 163.1818065
 193.5530000  95.7850000 168.2110000 191.4990000  96.9320000 167.0950000
 191.6099214  98.1651885 167.9899740 190.7348707  95.8468749 167.8397234
 196.1148790  95.2545784 165.5587728 195.5482276  95.3740000 166.9840000
 194.1310000  95.3740000 166.9840000 194.2520000  94.4020000 167.0150000
 193.7271057  94.8251082 167.7112381 193.3333487  95.6344789 169.2697628
 192.6444599  98.5303217 167.9467677 191.3523039  97.8765211 169.0140313
 190.9524407  98.9481457 167.6142770 191.1419448  94.8730218 167.5467150
 189.6795256  95.9012270 167.5650774 190.8645857  96.0075068 168.9136063
 195.7239904  96.0674292 164.9359391 197.2081579  95.3113141 165.5807570
 195.8973253  96.3037113 167.4423684 195.8937374  94.5534533 167.6215830
 193.8266078  96.3055210 166.9840000 195.1020000  92.9490000 167.1560000
 191.6210000  98.5690000 175.9530000 192.0590000  98.2470000 174.6350000
 193.5756870  98.3800422 174.5670128 194.1818325  97.4794892 175.4912661
 190.6510000  98.4520000 175.9330000 191.5791500  98.9300745 173.9279185
 191.7504998  97.2188257 174.4219032 193.8917786  99.3929699 174.8380657
 193.9438866  98.1470970 173.5644997 193.7472520  97.6643657 176.3468065
 193.5530000  95.7850000 181.3770000 191.4990000  96.9320000 180.2610000
 191.6099214  98.1651885 181.1559740 190.7348707  95.8468749 181.0057234
 196.1148790  95.2545784 178.7247728 195.5482276  95.3740000 180.1500000
 194.1310000  95.3740000 180.1500000 194.2520000  94.4020000 180.1810000
 193.7271057  94.8251082 180.8772381 193.3333487  95.6344789 182.4357628
 192.6444599  98.5303217 181.1127677 191.3523039  97.8765211 182.1800313
 190.9524407  98.9481457 180.7802770 191.1419448  94.8730218 180.7127150
 189.6795256  95.9012270 180.7310774 190.8645857  96.0075068 182.0796063
 195.7239904  96.0674292 178.1019391 197.2081579  95.3113141 178.7467570
 195.8973253  96.3037113 180.6083684 195.8937374  94.5534533 180.7875830
 193.8266078  96.3055210 180.1500000 195.1020000  92.9490000 180.3220000
 191.6210000  98.5690000 189.1190000 192.0590000  98.2470000 187.8010000
 193.5756870  98.3800422 187.7330128 194.1818325  97.4794892 188.6572661
 190.6510000  98.4520000 189.0990000 191.5791500  98.9300745 187.0939185
 191.7504998  97.2188257 187.5879032 193.8917786  99.3929699 188.0040657
 193.9438866  98.1470970 186.7304997 193.7472520  97.6643657 189.5128065
 193.5530000  95.7850000 194.5420000 191.4990000  96.9320000 193.4260000
 191.6099214  98.1651885 194.3209740 190.7348707  95.8468749 194.1707234
 196.1148790  95.2545784 191.8897728 195.5482276  95.3740000 193.3150000
 194.1310000  95.3740000 193.3150000 194.2520000  94.4020000 193.3460000
 193.7271057  94.8251082 194.0422381 193.3333487  95.6344789 195.6007628
 192.6444599  98.5303217 194.2777677 191.3523039  97.8765211 195.3450313
 190.9524407  98.9481457 193.9452770 191.1419448  94.8730218 193.8777150
 189.6795256  95.9012270 193.8960774 190.8645857  96.0075068 195.2446063
 195.7239904  96.0674292 191.2669391 197.2081579  95.3113141 191.9117570
 195.8973253  96.3037113 193.7733684 195.8937374  94.5534533 193.9525830
 193.8266078  96.3055210 193.3150000 195.1020000  92.9490000 193.4870000
 191.6210000  98.5690000 202.2840000 192.0590000  98.2470000 200.9660000
 193.5756870  98.3800422 200.8980128 194.1818325  97.4794892 201.8222661
 190.6510000  98.4520000 202.2640000 191.5791500  98.9300745 200.2589185
 191.7504998  97.2188257 200.7529032 193.8917786  99.3929699 201.1690657
 193.9438866  98.1470970 199.8954997 193.7472520  97.6643657 202.6778065
 193.5530000 103.1020000  76.0550000 191.4990000 104.2490000  74.9390000
 191.6099214 105.4821885  75.8339740 190.7348707 103.1638749  75.6837234
 196.1148790 102.5715784  73.4027728 195.5482276 102.6910000  74.8280000
 194.1310000 102.6910000  74.8280000 194.2520000 101.7190000  74.8590000
 193.7271057 102.1421082  75.5552381 193.3333487 102.9514789  77.1137628
 192.6444599 105.8473217  75.7907677 191.3523039 105.1935211  76.8580313
 190.9524407 106.2651457  75.4582770 191.1419448 102.1900218  75.3907150
 189.6795256 103.2182270  75.4090774 190.8645857 103.3245068  76.7576063
 195.7239904 103.3844292  72.7799391 197.2081579 102.6283141  73.4247570
 195.8973253 103.6207113  75.2863684 195.8937374 101.8704533  75.4655830
 193.8266078 103.6225210  74.8280000 195.1020000 100.2660000  75.0000000
 191.6210000 105.8860000  83.7970000 192.0590000 105.5640000  82.4790000
 193.5756870 105.6970422  82.4110128 194.1818325 104.7964892  83.3352661
 190.6510000 105.7690000  83.7770000 191.5791500 106.2470745  81.7719185
 191.7504998 104.5358257  82.2659032 193.8917786 106.7099699  82.6820657
 193.9438866 105.4640970  81.4084997 193.7472520 104.9813657  84.1908065
 193.5530000 103.1020000  89.2200000 191.4990000 104.2490000  88.1040000
 191.6099214 105.4821885  88.9989740 190.7348707 103.1638749  88.8487234
 196.1148790 102.5715784  86.5677728 195.5482276 102.6910000  87.9930000
 194.1310000 102.6910000  87.9930000 194.2520000 101.7190000  88.0240000
 193.7271057 102.1421082  88.7202381 193.3333487 102.9514789  90.2787628
 192.6444599 105.8473217  88.9557677 191.3523039 105.1935211  90.0230313
 190.9524407 106.2651457  88.6232770 191.1419448 102.1900218  88.5557150
 189.6795256 103.2182270  88.5740774 190.8645857 103.3245068  89.9226063
 195.7239904 103.3844292  85.9449391 197.2081579 102.6283141  86.5897570
 195.8973253 103.6207113  88.4513684 195.8937374 101.8704533  88.6305830
 193.8266078 103.6225210  87.9930000 195.1020000 100.2660000  88.1650000
 191.6210000 105.8860000  96.9620000 192.0590000 105.5640000  95.6440000
 193.5756870 105.6970422  95.5760128 194.1818325 104.7964892  96.5002661
 190.6510000 105.7690000  96.9420000 191.5791500 106.2470745  94.9369185
 191.7504998 104.5358257  95.4309032 193.8917786 106.7099699  95.8470657
 193.9438866 105.4640970  94.5734997 193.7472520 104.9813657  97.3558065
 193.5530000 103.1020000 102.3850000 191.4990000 104.2490000 101.2690000
 191.6099214 105.4821885 102.1639740 190.7348707 103.1638749 102.0137234
 196.1148790 102.5715784  99.7327728 195.5482276 102.6910000 101.1580000
 194.1310000 102.6910000 101.1580000 194.2520000 101.7190000 101.1890000
 193.7271057 102.1421082 101.8852381 193.3333487 102.9514789 103.4437628
 192.6444599 105.8473217 102.1207677 191.3523039 105.1935211 103.1880313
 190.9524407 106.2651457 101.7882770 191.1419448 102.1900218 101.7207150
 189.6795256 103.2182270 101.7390774 190.8645857 103.3245068 103.0876063
 195.7239904 103.3844292  99.1099391 197.2081579 102.6283141  99.7547570
 195.8973253 103.6207113 101.6163684 195.8937374 101.8704533 101.7955830
 193.8266078 103.6225210 101.1580000 195.1020000 100.2660000 101.3300000
 191.6210000 105.8860000 110.1270000 192.0590000 105.5640000 108.8090000
 193.5756870 105.6970422 108.7410128 194.1818325 104.7964892 109.6652661
 190.6510000 105.7690000 110.1070000 191.5791500 106.2470745 108.1019185
 191.7504998 104.5358257 108.5959032 193.8917786 106.7099699 109.0120657
 193.9438866 105.4640970 107.7384997 193.7472520 104.9813657 110.5208065
 193.5530000 103.1020000 115.5510000 191.4990000 104.2490000 114.4350000
 191.6099214 105.4821885 115.3299740 190.7348707 103.1638749 115.1797234
 196.1148790 102.5715784 112.8987728 195.5482276 102.6910000 114.3240000
 194.1310000 102.6910000 114.3240000 194.2520000 101.7190000 114.3550000
 193.7271057 102.1421082 115.0512381 193.3333487 102.9514789 116.6097628
 192.6444599 105.8473217 115.2867677 191.3523039 105.1935211 116.3540313
 190.9524407 106.2651457 114.9542770 191.1419448 102.1900218 114.8867150
 189.6795256 103.2182270 114.9050774 190.8645857 103.3245068 116.2536063
 195.7239904 103.3844292 112.2759391 197.2081579 102.6283141 112.9207570
 195.8973253 103.6207113 114.7823684 195.8937374 101.8704533 114.9615830
 193.8266078 103.6225210 114.3240000 195.1020000 100.2660000 114.4960000
 191.6210000 105.8860000 123.2930000 192.0590000 105.5640000 121.9750000
 193.5756870 105.6970422 121.9070128 194.1818325 104.7964892 122.8312661
 190.6510000 105.7690000 123.2730000 191.5791500 106.2470745 121.2679185
 191.7504998 104.5358257 121.7619032 193.8917786 106.7099699 122.1780657
 193.9438866 105.4640970 120.9044997 193.7472520 104.9813657 123.6868065
 193.5530000 103.1020000 128.7160000 191.4990000 104.2490000 127.6000000
 191.6099214 105.4821885 128.4949740 190.7348707 103.1638749 128.3447234
 196.1148790 102.5715784 126.0637728 195.5482276 102.6910000 127.4890000
 194.1310000 102.6910000 127.4890000 194.2520000 101.7190000 127.5200000
 193.7271057 102.1421082 128.2162381 193.3333487 102.9514789 129.7747628
 192.6444599 105.8473217 128.4517677 191.3523039 105.1935211 129.5190313
 190.9524407 106.2651457 128.1192770 191.1419448 102.1900218 128.0517150
 189.6795256 103.2182270 128.0700774 190.8645857 103.3245068 129.4186063
 195.7239904 103.3844292 125.4409391 197.2081579 102.6283141 126.0857570
 195.8973253 103.6207113 127.9473684 195.8937374 101.8704533 128.1265830
 193.8266078 103.6225210 127.4890000 195.1020000 100.2660000 127.6610000
 191.6210000 105.8860000 136.4580000 192.0590000 105.5640000 135.1400000
 193.5756870 105.6970422 135.0720128 194.1818325 104.7964892 135.9962661
 190.6510000 105.7690000 136.4380000 191.5791500 106.2470745 134.4329185
 191.7504998 104.5358257 134.9269032 193.8917786 106.7099699 135.3430657
 193.9438866 105.4640970 134.0694997 193.7472520 104.9813657 136.8518065
 193.5530000 103.1020000 141.8810000 191.4990000 104.2490000 140.7650000
 191.6099214 105.4821885 141.6599740 190.7348707 103.1638749 141.5097234
 196.1148790 102.5715784 139.2287728 195.5482276 102.6910000 140.6540000
 194.1310000 102.6910000 140.6540000 194.2520000 101.7190000 140.6850000
 193.7271057 102.1421082 141.3812381 193.3333487 102.9514789 142.9397628
 192.6444599 105.8473217 141.6167677 191.3523039 105.1935211 142.6840313
 190.9524407 106.2651457 141.2842770 191.1419448 102.1900218 141.2167150
 189.6795256 103.2182270 141.2350774 190.8645857 103.3245068 142.5836063
 195.7239904 103.3844292 138.6059391 197.2081579 102.6283141 139.2507570
 195.8973253 103.6207113 141.1123684 195.8937374 101.8704533 141.2915830
 193.8266078 103.6225210 140.6540000 195.1020000 100.2660000 140.8260000
 191.6210000 105.8860000 149.6230000 192.0590000 105.5640000 148.3050000
 193.5756870 105.6970422 148.2370128 194.1818325 104.7964892 149.1612661
 190.6510000 105.7690000 149.6030000 191.5791500 106.2470745 147.5979185
 191.7504998 104.5358257 148.0919032 193.8917786 106.7099699 148.5080657
 193.9438866 105.4640970 147.2344997 193.7472520 104.9813657 150.0168065
 193.5530000 103.1020000 155.0460000 191.4990000 104.2490000 153.9300000
 191.6099214 105.4821885 154.8249740 190.7348707 103.1638749 154.6747234
 196.1148790 102.5715784 152.3937728 195.5482276 102.6910000 153.8190000
 194.1310000 102.6910000 153.8190000 194.2520000 101.7190000 153.8500000
 193.7271057 102.1421082 154.5462381 193.3333487 102.9514789 156.1047628
 192.6444599 105.8473217 154.7817677 191.3523039 105.1935211 155.8490313
 190.9524407 106.2651457 154.4492770 191.1419448 102.1900218 154.3817150
 189.6795256 103.2182270 154.4000774 190.8645857 103.3245068 155.7486063
 195.7239904 103.3844292 151.7709391 197.2081579 102.6283141 152.4157570
 195.8973253 103.6207113 154.2773684 195.8937374 101.8704533 154.4565830
 193.8266078 103.6225210 153.8190000 195.1020000 100.2660000 153.9910000
 191.6210000 105.8860000 162.7880000 192.0590000 105.5640000 161.4700000
 193.5756870 105.6970422 161.4020128 194.1818325 104.7964892 162.3262661
 190.6510000 105.7690000 162.7680000 191.5791500 106.2470745 160.7629185
 191.7504998 104.5358257 161.2569032 193.8917786 106.7099699 161.6730657
 193.9438866 105.4640970 160.3994997 193.7472520 104.9813657 163.1818065
 193.5530000 103.1020000 168.2110000 191.4990000 104.2490000 167.0950000
 191.6099214 105.4821885 167.9899740 190.7348707 103.1638749 167.8397234
 196.1148790 102.5715784 165.5587728 195.5482276 102.6910000 166.9840000
 194.1310000 102.6910000 166.9840000 194.2520000 101.7190000 167.0150000
 193.7271057 102.1421082 167.7112381 193.3333487 102.9514789 169.2697628
 192.6444599 105.8473217 167.9467677 191.3523039 105.1935211 169.0140313
 190.9524407 106.2651457 167.6142770 191.1419448 102.1900218 167.5467150
 189.6795256 103.2182270 167.5650774 190.8645857 103.3245068 168.9136063
 195.7239904 103.3844292 164.9359391 197.2081579 102.6283141 165.5807570
 195.8973253 103.6207113 167.4423684 195.8937374 101.8704533 167.6215830
 193.8266078 103.6225210 166.9840000 195.1020000 100.2660000 167.1560000
 191.6210000 105.8860000 175.9530000 192.0590000 105.5640000 174.6350000
 193.5756870 105.6970422 174.5670128 194.1818325 104.7964892 175.4912661
 190.6510000 105.7690000 175.9330000 191.5791500 106.2470745 173.9279185
 191.7504998 104.5358257 174.4219032 193.8917786 106.7099699 174.8380657
 193.9438866 105.4640970 173.5644997 193.7472520 104.9813657 176.3468065
 193.5530000 103.1020000 181.3770000 191.4990000 104.2490000 180.2610000
 191.6099214 105.4821885 181.1559740 190.7348707 103.1638749 181.0057234
 196.1148790 102.5715784 178.7247728 195.5482276 102.6910000 180.1500000
 194.1310000 102.6910000 180.1500000 194.2520000 101.7190000 180.1810000
 193.7271057 102.1421082 180.8772381 193.3333487 102.9514789 182.4357628
 192.6444599 105.8473217 181.1127677 191.3523039 105.1935211 182.1800313
 190.9524407 106.2651457 180.7802770 191.1419448 102.1900218 180.7127150
 189.6795256 103.2182270 180.7310774 190.8645857 103.3245068 182.0796063
 195.7239904 103.3844292 178.1019391 197.2081579 102.6283141 178.7467570
 195.8973253 103.6207113 180.6083684 195.8937374 101.8704533 180.7875830
 193.8266078 103.6225210 180.1500000 195.1020000 100.2660000 180.3220000
 191.6210000 105.8860000 189.1190000 192.0590000 105.5640000 187.8010000
 193.5756870 105.6970422 187.7330128 194.1818325 104.7964892 188.6572661
 190.6510000 105.7690000 189.0990000 191.5791500 106.2470745 187.0939185
 191.7504998 104.5358257 187.5879032 193.8917786 106.7099699 188.0040657
 193.9438866 105.4640970 186.7304997 193.7472520 104.9813657 189.5128065
 193.5530000 103.1020000 194.5420000 191.4990000 104.2490000 193.4260000
 191.6099214 105.4821885 194.3209740 190.7348707 103.1638749 194.1707234
 196.1148790 102.5715784 191.8897728 195.5482276 102.6910000 193.3150000
 194.1310000 102.6910000 193.3150000 194.2520000 101.7190000 193.3460000
 193.7271057 102.1421082 194.0422381 193.3333487 102.9514789 195.6007628
 192.6444599 105.8473217 194.2777677 191.3523039 105.1935211 195.3450313
 190.9524407 106.2651457 193.9452770 191.1419448 102.1900218 193.8777150
 189.6795256 103.2182270 193.8960774 190.8645857 103.3245068 195.2446063
 195.7239904 103.3844292 191.2669391 197.2081579 102.6283141 191.9117570
 195.8973253 103.6207113 193.7733684 195.8937374 101.8704533 193.9525830
 193.8266078 103.6225210 193.3150000 195.1020000 100.2660000 193.4870000
 191.6210000 105.8860000 202.2840000 192.0590000 105.5640000 200.9660000
 193.5756870 105.6970422 200.8980128 194.1818325 104.7964892 201.8222661
 190.6510000 105.7690000 202.2640000 191.5791500 106.2470745 200.2589185
 191.7504998 104.5358257 200.7529032 193.8917786 106.7099699 201.1690657
 193.9438866 105.4640970 199.8954997 193.7472520 104.9813657 202.6778065
 193.5530000 110.4180000  76.0550000 191.4990000 111.5650000  74.9390000
 191.6099214 112.7981885  75.8339740 190.7348707 110.4798749  75.6837234
 196.1148790 109.8875784  73.4027728 195.5482276 110.0070000  74.8280000
 194.1310000 110.0070000  74.8280000 194.2520000 109.0350000  74.8590000
 193.7271057 109.4581082  75.5552381 193.3333487 110.2674789  77.1137628
 192.6444599 113.1633217  75.7907677 191.3523039 112.5095211  76.8580313
 190.9524407 113.5811457  75.4582770 191.1419448 109.5060218  75.3907150
 189.6795256 110.5342270  75.4090774 190.8645857 110.6405068  76.7576063
 195.7239904 110.7004292  72.7799391 197.2081579 109.9443141  73.4247570
 195.8973253 110.9367113  75.2863684 195.8937374 109.1864533  75.4655830
 193.8266078 110.9385210  74.8280000 195.1020000 107.5820000  75.0000000
 191.6210000 113.2020000  83.7970000 192.0590000 112.8800000  82.4790000
 193.5756870 113.0130422  82.4110128 194.1818325 112.1124892  83.3352661
 190.6510000 113.0850000  83.7770000 191.5791500 113.5630745  81.7719185
 191.7504998 111.8518257  82.2659032 193.8917786 114.0259699  82.6820657
 193.9438866 112.7800970  81.4084997 193.7472520 112.2973657  84.1908065
 193.5530000 110.4180000  89.2200000 191.4990000 111.5650000  88.1040000
 191.6099214 112.7981885  88.9989740 190.7348707 110.4798749  88.8487234
 196.1148790 109.8875784  86.5677728 195.5482276 110.0070000  87.9930000
 194.1310000 110.0070000  87.9930000 194.2520000 109.0350000  88.0240000
 193.7271057 109.4581082  88.7202381 193.3333487 110.2674789  90.2787628
 192.6444599 113.1633217  88.9557677 191.3523039 112.5095211  90.0230313
 190.9524407 113.5811457  88.6232770 191.1419448 109.5060218  88.5557150
 189.6795256 110.5342270  88.5740774 190.8645857 110.6405068  89.9226063
 195.7239904 110.7004292  85.9449391 197.2081579 109.9443141  86.5897570
 195.8973253 110.9367113  88.4513684 195.8937374 109.1864533  88.6305830
 193.8266078 110.9385210  87.9930000 195.1020000 107.5820000  88.1650000
 191.6210000 113.2020000  96.9620000 192.0590000 112.8800000  95.6440000
 193.5756870 113.0130422  95.5760128 194.1818325 112.1124892  96.5002661
 190.6510000 113.0850000  96.9420000 191.5791500 113.5630745  94.9369185
 191.7504998 111.8518257  95.4309032 193.8917786 114.0259699  95.8470657
 193.9438866 112.7800970  94.5734997 193.7472520 112.2973657  97.3558065
 193.5530000 110.4180000 102.3850000 191.4990000 111.5650000 101.2690000
 191.6099214 112.7981885 102.1639740 190.7348707 110.4798749 102.0137234
 196.1148790 109.8875784  99.7327728 195.5482276 110.0070000 101.1580000
 194.1310000 110.0070000 101.1580000 194.2520000 109.0350000 101.1890000
 193.7271057 109.4581082 101.8852381 193.3333487 110.2674789 103.4437628
 192.6444599 113.1633217 102.1207677 191.3523039 112.5095211 103.1880313
 190.9524407 113.5811457 101.7882770 191.1419448 109.5060218 101.7207150
 189.6795256 110.5342270 101.7390774 190.8645857 110.6405068 103.0876063
 195.7239904 110.7004292  99.1099391 197.2081579 109.9443141  99.7547570
 195.8973253 110.9367113 101.6163684 195.8937374 109.1864533 101.7955830
 193.8266078 110.9385210 101.1580000 195.1020000 107.5820000 101.3300000
 191.6210000 113.2020000 110.1270000 192.0590000 112.8800000 108.8090000
 193.5756870 113.0130422 108.7410128 194.1818325 112.1124892 109.6652661
 190.6510000 113.0850000 110.1070000 191.5791500 113.5630745 108.1019185
 191.7504998 111.8518257 108.5959032 193.8917786 114.0259699 109.0120657
 193.9438866 112.7800970 107.7384997 193.7472520 112.2973657 110.5208065
 193.5530000 110.4180000 115.5510000 191.4990000 111.5650000 114.4350000
 191.6099214 112.7981885 115.3299740 190.7348707 110.4798749 115.1797234
 196.1148790 109.8875784 112.8987728 195.5482276 110.0070000 114.3240000
 194.1310000 110.0070000 114.3240000 194.2520000 109.0350000 114.3550000
 193.7271057 109.4581082 115.0512381 193.3333487 110.2674789 116.6097628
 192.6444599 113.1633217 115.2867677 191.3523039 112.5095211 116.3540313
 190.9524407 113.5811457 114.9542770 191.1419448 109.5060218 114.8867150
 189.6795256 110.5342270 114.9050774 190.8645857 110.6405068 116.2536063
 195.7239904 110.7004292 112.2759391 197.2081579 109.9443141 112.9207570
 195.8973253 110.9367113 114.7823684 195.8937374 109.1864533 114.9615830
 193.8266078 110.9385210 114.3240000 195.1020000 107.5820000 114.4960000
 191.6210000 113.2020000 123.2930000 192.0590000 112.8800000 121.9750000
 193.5756870 113.0130422 121.9070128 194.1818325 112.1124892 122.8312661
 190.6510000 113.0850000 123.2730000 191.5791500 113.5630745 121.2679185
 191.7504998 111.8518257 121.7619032 193.8917786 114.0259699 122.1780657
 193.9438866 112.7800970 120.9044997 193.7472520 112.2973657 123.6868065
 193.5530000 110.4180000 128.7160000 191.4990000 111.5650000 127.6000000
 191.6099214 112.7981885 128.4949740 190.7348707 110.4798749 128.3447234
 196.1148790 109.8875784 126.0637728 195.5482276 110.0070000 127.4890000
 194.1310000 110.0070000 127.4890000 194.2520000 109.0350000 127.5200000
 193.7271057 109.4581082 128.2162381 193.3333487 110.2674789 129.7747628
 192.6444599 113.1633217 128.4517677 191.3523039 112.5095211 129.5190313
 190.9524407 113.5811457 128.1192770 191.1419448 109.5060218 128.0517150
 189.6795256 110.5342270 128.0700774 190.8645857 110.6405068 129.4186063
 195.7239904 110.7004292 125.4409391 197.2081579 109.9443141 126.0857570
 195.8973253 110.9367113 127.9473684 195.8937374 109.1864533 128.1265830
 193.8266078 110.9385210 127.4890000 195.1020000 107.5820000 127.6610000
 191.6210000 113.2020000 136.4580000 192.0590000 112.8800000 135.1400000
 193.5756870 113.0130422 135.0720128 194.1818325 112.1124892 135.9962661
 190.6510000 113.0850000 136.4380000 191.5791500 113.5630745 134.4329185
 191.7504998 111.8518257 134.9269032 193.8917786 114.0259699 135.3430657
 193.9438866 112.7800970 134.0694997 193.7472520 112.2973657 136.8518065
 193.5530000 110.4180000 141.8810000 191.4990000 111.5650000 140.7650000
 191.6099214 112.7981885 141.6599740 190.7348707 110.4798749 141.5097234
 196.1148790 109.8875784 139.2287728 195.5482276 110.0070000 140.6540000
 194.1310000 110.0070000 140.6540000 194.2520000 109.0350000 140.6850000
 193.7271057 109.4581082 141.3812381 193.3333487 110.2674789 142.9397628
 192.6444599 113.1633217 141.6167677 191.3523039 112.5095211 142.6840313
 190.9524407 113.5811457 141.2842770 191.1419448 109.5060218 141.2167150
 189.6795256 110.5342270 141.2350774 190.8645857 110.6405068 142.5836063
 195.7239904 110.7004292 138.6059391 197.2081579 109.9443141 139.2507570
 195.8973253 110.9367113 141.1123684 195.8937374 109.1864533 141.2915830
 193.8266078 110.9385210 140.6540000 195.1020000 107.5820000 140.8260000
 191.6210000 113.2020000 149.6230000 192.0590000 112.8800000 148.3050000
 193.5756870 113.0130422 148.2370128 194.1818325 112.1124892 149.1612661
 190.6510000 113.0850000 149.6030000 191.5791500 113.5630745 147.5979185
 191.7504998 111.8518257 148.0919032 193.8917786 114.0259699 148.5080657
 193.9438866 112.7800970 147.2344997 193.7472520 112.2973657 150.0168065
 193.5530000 110.4180000 155.0460000 191.4990000 111.5650000 153.9300000
 191.6099214 112.7981885 154.8249740 190.7348707 110.4798749 154.6747234
 196.1148790 109.8875784 152.3937728 195.5482276 110.0070000 153.8190000
 194.1310000 110.0070000 153.8190000 194.2520000 109.0350000 153.8500000
 193.7271057 109.4581082 154.5462381 193.3333487 110.2674789 156.1047628
 192.6444599 113.1633217 154.7817677 191.3523039 112.5095211 155.8490313
 190.9524407 113.5811457 154.4492770 191.1419448 109.5060218 154.3817150
 189.6795256 110.5342270 154.4000774 190.8645857 110.6405068 155.7486063
 195.7239904 110.7004292 151.7709391 197.2081579 109.9443141 152.4157570
 195.8973253 110.9367113 154.2773684 195.8937374 109.1864533 154.4565830
 193.8266078 110.9385210 153.8190000 195.1020000 107.5820000 153.9910000
 191.6210000 113.2020000 162.7880000 192.0590000 112.8800000 161.4700000
 193.5756870 113.0130422 161.4020128 194.1818325 112.1124892 162.3262661
 190.6510000 113.0850000 162.7680000 191.5791500 113.5630745 160.7629185
 191.7504998 111.8518257 161.2569032 193.8917786 114.0259699 161.6730657
 193.9438866 112.7800970 160.3994997 193.7472520 112.2973657 163.1818065
 193.5530000 110.4180000 168.2110000 191.4990000 111.5650000 167.0950000
 191.6099214 112.7981885 167.9899740 190.7348707 110.4798749 167.8397234
 196.1148790 109.8875784 165.5587728 195.5482276 110.0070000 166.9840000
 194.1310000 110.0070000 166.9840000 194.2520000 109.0350000 167.0150000
 193.7271057 109.4581082 167.7112381 193.3333487 110.2674789 169.2697628
 192.6444599 113.1633217 167.9467677 191.3523039 112.5095211 169.0140313
 190.9524407 113.5811457 167.6142770 191.1419448 109.5060218 167.5467150
 189.6795256 110.5342270 167.5650774 190.8645857 110.6405068 168.9136063
 195.7239904 110.7004292 164.9359391 197.2081579 109.9443141 165.5807570
 195.8973253 110.9367113 167.4423684 195.8937374 109.1864533 167.6215830
 193.8266078 110.9385210 166.9840000 195.1020000 107.5820000 167.1560000
 191.6210000 113.2020000 175.9530000 192.0590000 112.8800000 174.6350000
 193.5756870 113.0130422 174.5670128 194.1818325 112.1124892 175.4912661
 190.6510000 113.0850000 175.9330000 191.5791500 113.5630745 173.9279185
 191.7504998 111.8518257 174.4219032 193.8917786 114.0259699 174.8380657
 193.9438866 112.7800970 173.5644997 193.7472520 112.2973657 176.3468065
 193.5530000 110.4180000 181.3770000 191.4990000 111.5650000 180.2610000
 191.6099214 112.7981885 181.1559740 190.7348707 110.4798749 181.0057234
 196.1148790 109.8875784 178.7247728 195.5482276 110.0070000 180.1500000
 194.1310000 110.0070000 180.1500000 194.2520000 109.0350000 180.1810000
 193.7271057 109.4581082 180.8772381 193.3333487 110.2674789 182.4357628
 192.6444599 113.1633217 181.1127677 191.3523039 112.5095211 182.1800313
 190.9524407 113.5811457 180.7802770 191.1419448 109.5060218 180.7127150
 189.6795256 110.5342270 180.7310774 190.8645857 110.6405068 182.0796063
 195.7239904 110.7004292 178.1019391 197.2081579 109.9443141 178.7467570
 195.8973253 110.9367113 180.6083684 195.8937374 109.1864533 180.7875830
 193.8266078 110.9385210 180.1500000 195.1020000 107.5820000 180.3220000
 191.6210000 113.2020000 189.1190000 192.0590000 112.8800000 187.8010000
 193.5756870 113.0130422 187.7330128 194.1818325 112.1124892 188.6572661
 190.6510000 113.0850000 189.0990000 191.5791500 113.5630745 187.0939185
 191.7504998 111.8518257 187.5879032 193.8917786 114.0259699 188.0040657
 193.9438866 112.7800970 186.7304997 193.7472520 112.2973657 189.5128065
 193.5530000 110.4180000 194.5420000 191.4990000 111.5650000 193.4260000
 191.6099214 112.7981885 194.3209740 190.7348707 110.4798749 194.1707234
 196.1148790 109.8875784 191.8897728 195.5482276 110.0070000 193.3150000
 194.1310000 110.0070000 193.3150000 194.2520000 109.0350000 193.3460000
 193.7271057 109.4581082 194.0422381 193.3333487 110.2674789 195.6007628
 192.6444599 113.1633217 194.2777677 191.3523039 112.5095211 195.3450313
 190.9524407 113.5811457 193.9452770 191.1419448 109.5060218 193.8777150
 189.6795256 110.5342270 193.8960774 190.8645857 110.6405068 195.2446063
 195.7239904 110.7004292 191.2669391 197.2081579 109.9443141 191.9117570
 195.8973253 110.9367113 193.7733684 195.8937374 109.1864533 193.9525830
 193.8266078 110.9385210 193.3150000 195.1020000 107.5820000 193.4870000
 191.6210000 113.2020000 202.2840000 192.0590000 112.8800000 200.9660000
 193.5756870 113.0130422 200.8980128 194.1818325 112.1124892 201.8222661
 190.6510000 113.0850000 202.2640000 191.5791500 113.5630745 200.2589185
 191.7504998 111.8518257 200.7529032 193.8917786 114.0259699 201.1690657
 193.9438866 112.7800970 199.8954997 193.7472520 112.2973657 202.6778065
 193.5530000 117.7340000  76.0550000 191.4990000 118.8810000  74.9390000
 191.6099214 120.1141885  75.8339740 190.7348707 117.7958749  75.6837234
 196.1148790 117.2035784  73.4027728 195.5482276 117.3230000  74.8280000
 194.1310000 117.3230000  74.8280000 194.2520000 116.3510000  74.8590000
 193.7271057 116.7741082  75.5552381 193.3333487 117.5834789  77.1137628
 192.6444599 120.4793217  75.7907677 191.3523039 119.8255211  76.8580313
 190.9524407 120.8971457  75.4582770 191.1419448 116.8220218  75.3907150
 189.6795256 117.8502270  75.4090774 190.8645857 117.9565068  76.7576063
 195.7239904 118.0164292  72.7799391 197.2081579 117.2603141  73.4247570
 195.8973253 118.2527113  75.2863684 195.8937374 116.5024533  75.4655830
 193.8266078 118.2545210  74.8280000 195.1020000 114.8980000  75.0000000
 191.6210000 120.5180000  83.7970000 192.0590000 120.1960000  82.4790000
 193.5756870 120.3290422  82.4110128 194.1818325 119.4284892  83.3352661
 190.6510000 120.4010000  83.7770000 191.5791500 120.8790745  81.7719185
 191.7504998 119.1678257  82.2659032 193.8917786 121.3419699  82.6820657
 193.9438866 120.0960970  81.4084997 193.7472520 119.6133657  84.1908065
 193.5530000 117.7340000  89.2200000 191.4990000 118.8810000  88.1040000
 191.6099214 120.1141885  88.9989740 190.7348707 117.7958749  88.8487234
 196.1148790 117.2035784  86.5677728 195.5482276 117.3230000  87.9930000
 194.1310000 117.3230000  87.9930000 194.2520000 116.3510000  88.0240000
 193.7271057 116.7741082  88.7202381 193.3333487 117.5834789  90.2787628
 192.6444599 120.4793217  88.9557677 191.3523039 119.8255211  90.0230313
 190.9524407 120.8971457  88.6232770 191.1419448 116.8220218  88.5557150
 189.6795256 117.8502270  88.5740774 190.8645857 117.9565068  89.9226063
 195.7239904 118.0164292  85.9449391 197.2081579 117.2603141  86.5897570
 195.8973253 118.2527113  88.4513684 195.8937374 116.5024533  88.6305830
 193.8266078 118.2545210  87.9930000 195.1020000 114.8980000  88.1650000
 191.6210000 120.5180000  96.9620000 192.0590000 120.1960000  95.6440000
 193.5756870 120.3290422  95.5760128 194.1818325 119.4284892  96.5002661
 190.6510000 120.4010000  96.9420000 191.5791500 120.8790745  94.9369185
 191.7504998 119.1678257  95.4309032 193.8917786 121.3419699  95.8470657
 193.9438866 120.0960970  94.5734997 193.7472520 119.6133657  97.3558065
 193.5530000 117.7340000 102.3850000 191.4990000 118.8810000 101.2690000
 191.6099214 120.1141885 102.1639740 190.7348707 117.7958749 102.0137234
 196.1148790 117.2035784  99.7327728 195.5482276 117.3230000 101.1580000
 194.1310000 117.3230000 101.1580000 194.2520000 116.3510000 101.1890000
 193.7271057 116.7741082 101.8852381 193.3333487 117.5834789 103.4437628
 192.6444599 120.4793217 102.1207677 191.3523039 119.8255211 103.1880313
 190.9524407 120.8971457 101.7882770 191.1419448 116.8220218 101.7207150
 189.6795256 117.8502270 101.7390774 190.8645857 117.9565068 103.0876063
 195.7239904 118.0164292  99.1099391 197.2081579 117.2603141  99.7547570
 195.8973253 118.2527113 101.6163684 195.8937374 116.5024533 101.7955830
 193.8266078 118.2545210 101.1580000 195.1020000 114.8980000 101.3300000
 191.6210000 120.5180000 110.1270000 192.0590000 120.1960000 108.8090000
 193.5756870 120.3290422 108.7410128 194.1818325 119.4284892 109.6652661
 190.6510000 120.4010000 110.1070000 191.5791500 120.8790745 108.1019185
 191.7504998 119.1678257 108.5959032 193.8917786 121.3419699 109.0120657
 193.9438866 120.0960970 107.7384997 193.7472520 119.6133657 110.5208065
 193.5530000 117.7340000 115.5510000 191.4990000 118.8810000 114.4350000
 191.6099214 120.1141885 115.3299740 190.7348707 117.7958749 115.1797234
 196.1148790 117.2035784 112.8987728 195.5482276 117.3230000 114.3240000
 194.1310000 117.3230000 114.3240000 194.2520000 116.3510000 114.3550000
 193.7271057 116.7741082 115.0512381 193.3333487 117.5834789 116.6097628
 192.6444599 120.4793217 115.2867677 191.3523039 119.8255211 116.3540313
 190.9524407 120.8971457 114.9542770 191.1419448 116.8220218 114.8867150
 189.6795256 117.8502270 114.9050774 190.8645857 117.9565068 116.2536063
 195.7239904 118.0164292 112.2759391 197.2081579 117.2603141 112.9207570
 195.8973253 118.2527113 114.7823684 195.8937374 116.5024533 114.9615830
 193.8266078 118.2545210 114.3240000 195.1020000 114.8980000 114.4960000
 191.6210000 120.5180000 123.2930000 192.0590000 120.1960000 121.9750000
 193.5756870 120.3290422 121.9070128 194.1818325 119.4284892 122.8312661
 190.6510000 120.4010000 123.2730000 191.5791500 120.8790745 121.2679185
 191.7504998 119.1678257 121.7619032 193.8917786 121.3419699 122.1780657
 193.9438866 120.0960970 120.9044997 193.7472520 119.6133657 123.6868065
 193.5530000 117.7340000 128.7160000 191.4990000 118.8810000 127.6000000
 191.6099214 120.1141885 128.4949740 190.7348707 117.7958749 128.3447234
 196.1148790 117.2035784 126.0637728 195.5482276 117.3230000 127.4890000
 194.1310000 117.3230000 127.4890000 194.2520000 116.3510000 127.5200000
 193.7271057 116.7741082 128.2162381 193.3333487 117.5834789 129.7747628
 192.6444599 120.4793217 128.4517677 191.3523039 119.8255211 129.5190313
 190.9524407 120.8971457 128.1192770 191.1419448 116.8220218 128.0517150
 189.6795256 117.8502270 128.0700774 190.8645857 117.9565068 129.4186063
 195.7239904 118.0164292 125.4409391 197.2081579 117.2603141 126.0857570
 195.8973253 118.2527113 127.9473684 195.8937374 116.5024533 128.1265830
 193.8266078 118.2545210 127.4890000 195.1020000 114.8980000 127.6610000
 191.6210000 120.5180000 136.4580000 192.0590000 120.1960000 135.1400000
 193.5756870 120.3290422 135.0720128 194.1818325 119.4284892 135.9962661
 190.6510000 120.4010000 136.4380000 191.5791500 120.8790745 134.4329185
 191.7504998 119.1678257 134.9269032 193.8917786 121.3419699 135.3430657
 193.9438866 120.0960970 134.0694997 193.7472520 119.6133657 136.8518065
 193.5530000 117.7340000 141.8810000 191.4990000 118.8810000 140.7650000
 191.6099214 120.1141885 141.6599740 190.7348707 117.7958749 141.5097234
 196.1148790 117.2035784 139.2287728 195.5482276 117.3230000 140.6540000
 194.1310000 117.3230000 140.6540000 194.2520000 116.3510000 140.6850000
 193.7271057 116.7741082 141.3812381 193.3333487 117.5834789 142.9397628
 192.6444599 120.4793217 141.6167677 191.3523039 119.8255211 142.6840313
 190.9524407 120.8971457 141.2842770 191.1419448 116.8220218 141.2167150
 189.6795256 117.8502270 141.2350774 190.8645857 117.9565068 142.5836063
 195.7239904 118.0164292 138.6059391 197.2081579 117.2603141 139.2507570
 195.8973253 118.2527113 141.1123684 195.8937374 116.5024533 141.2915830
 193.8266078 118.2545210 140.6540000 195.1020000 114.8980000 140.8260000
 191.6210000 120.5180000 149.6230000 192.0590000 120.1960000 148.3050000
 193.5756870 120.3290422 148.2370128 194.1818325 119.4284892 149.1612661
 190.6510000 120.4010000 149.6030000 191.5791500 120.8790745 147.5979185
 191.7504998 119.1678257 148.0919032 193.8917786 121.3419699 148.5080657
 193.9438866 120.0960970 147.2344997 193.7472520 119.6133657 150.0168065
 193.5530000 117.7340000 155.0460000 191.4990000 118.8810000 153.9300000
 191.6099214 120.1141885 154.8249740 190.7348707 117.7958749 154.6747234
 196.1148790 117.2035784 152.3937728 195.5482276 117.3230000 153.8190000
 194.1310000 117.3230000 153.8190000 194.2520000 116.3510000 153.8500000
 193.7271057 116.7741082 154.5462381 193.3333487 117.5834789 156.1047628
 192.6444599 120.4793217 154.7817677 191.3523039 119.8255211 155.8490313
 190.9524407 120.8971457 154.4492770 191.1419448 116.8220218 154.3817150
 189.6795256 117.8502270 154.4000774 190.8645857 117.9565068 155.7486063
 195.7239904 118.0164292 151.7709391 197.2081579 117.2603141 152.4157570
 195.8973253 118.2527113 154.2773684 195.8937374 116.5024533 154.4565830
 193.8266078 118.2545210 153.8190000 195.1020000 114.8980000 153.9910000
 191.6210000 120.5180000 162.7880000 192.0590000 120.1960000 161.4700000
 193.5756870 120.3290422 161.4020128 194.1818325 119.4284892 162.3262661
 190.6510000 120.4010000 162.7680000 191.5791500 120.8790745 160.7629185
 191.7504998 119.1678257 161.2569032 193.8917786 121.3419699 161.6730657
 193.9438866 120.0960970 160.3994997 193.7472520 119.6133657 163.1818065
 193.5530000 117.7340000 168.2110000 191.4990000 118.8810000 167.0950000
 191.6099214 120.1141885 167.9899740 190.7348707 117.7958749 167.8397234
 196.1148790 117.2035784 165.5587728 195.5482276 117.3230000 166.9840000
 194.1310000 117.3230000 166.9840000 194.2520000 116.3510000 167.0150000
 193.7271057 116.7741082 167.7112381 193.3333487 117.5834789 169.2697628
 192.6444599 120.4793217 167.9467677 191.3523039 119.8255211 169.0140313
 190.9524407 120.8971457 167.6142770 191.1419448 116.8220218 167.5467150
 189.6795256 117.8502270 167.5650774 190.8645857 117.9565068 168.9136063
 195.7239904 118.0164292 164.9359391 197.2081579 117.2603141 165.5807570
 195.8973253 118.2527113 167.4423684 195.8937374 116.5024533 167.6215830
 193.8266078 118.2545210 166.9840000 195.1020000 114.8980000 167.1560000
 191.6210000 120.5180000 175.9530000 192.0590000 120.1960000 174.6350000
 193.5756870 120.3290422 174.5670128 194.1818325 119.4284892 175.4912661
 190.6510000 120.4010000 175.9330000 191.5791500 120.8790745 173.9279185
 191.7504998 119.1678257 174.4219032 193.8917786 121.3419699 174.8380657
 193.9438866 120.0960970 173.5644997 193.7472520 119.6133657 176.3468065
 193.5530000 117.7340000 181.3770000 191.4990000 118.8810000 180.2610000
 191.6099214 120.1141885 181.1559740 190.7348707 117.7958749 181.0057234
 196.1148790 117.2035784 178.7247728 195.5482276 117.3230000 180.1500000
 194.1310000 117.3230000 180.1500000 194.2520000 116.3510000 180.1810000
 193.7271057 116.7741082 180.8772381 193.3333487 117.5834789 182.4357628
 192.6444599 120.4793217 181.1127677 191.3523039 119.8255211 182.1800313
 190.9524407 120.8971457 180.7802770 191.1419448 116.8220218 180.7127150
 189.6795256 117.8502270 180.7310774 190.8645857 117.9565068 182.0796063
 195.7239904 118.0164292 178.1019391 197.2081579 117.2603141 178.7467570
 195.8973253 118.2527113 180.6083684 195.8937374 116.5024533 180.7875830
 193.8266078 118.2545210 180.1500000 195.1020000 114.8980000 180.3220000
 191.6210000 120.5180000 189.1190000 192.0590000 120.1960000 187.8010000
 193.5756870 120.3290422 187.7330128 194.1818325 119.4284892 188.6572661
 190.6510000 120.4010000 189.0990000 191.5791500 120.8790745 187.0939185
 191.7504998 119.1678257 187.5879032 193.8917786 121.3419699 188.0040657
 193.9438866 120.0960970 186.7304997 193.7472520 119.6133657 189.5128065
 193.5530000 117.7340000 194.5420000 191.4990000 118.8810000 193.4260000
 191.6099214 120.1141885 194.3209740 190.7348707 117.7958749 194.1707234
 196.1148790 117.2035784 191.8897728 195.5482276 117.3230000 193.3150000
 194.1310000 117.3230000 193.3150000 194.2520000 116.3510000 193.3460000
 193.7271057 116.7741082 194.0422381 193.3333487 117.5834789 195.6007628
 192.6444599 120.4793217 194.2777677 191.3523039 119.8255211 195.3450313
 190.9524407 120.8971457 193.9452770 191.1419448 116.8220218 193.8777150
 189.6795256 117.8502270 193.8960774 190.8645857 117.9565068 195.2446063
 195.7239904 118.0164292 191.2669391 197.2081579 117.2603141 191.9117570
 195.8973253 118.2527113 193.7733684 195.8937374 116.5024533 193.9525830
 193.8266078 118.2545210 193.3150000 195.1020000 114.8980000 193.4870000
 191.6210000 120.5180000 202.2840000 192.0590000 120.1960000 200.9660000
 193.5756870 120.3290422 200.8980128 194.1818325 119.4284892 201.8222661
 190.6510000 120.4010000 202.2640000 191.5791500 120.8790745 200.2589185
 191.7504998 119.1678257 200.7529032 193.8917786 121.3419699 201.1690657
 193.9438866 120.0960970 199.8954997 193.7472520 119.6133657 202.6778065
 193.5530000 125.0510000  76.0550000 191.4990000 126.1980000  74.9390000
 191.6099214 127.4311885  75.8339740 190.7348707 125.1128749  75.6837234
 196.1148790 124.5205784  73.4027728 195.5482276 124.6400000  74.8280000
 194.1310000 124.6400000  74.8280000 194.2520000 123.6680000  74.8590000
 193.7271057 124.0911082  75.5552381 193.3333487 124.9004789  77.1137628
 192.6444599 127.7963217  75.7907677 191.3523039 127.1425211  76.8580313
 190.9524407 128.2141457  75.4582770 191.1419448 124.1390218  75.3907150
 189.6795256 125.1672270  75.4090774 190.8645857 125.2735068  76.7576063
 195.7239904 125.3334292  72.7799391 197.2081579 124.5773141  73.4247570
 195.8973253 125.5697113  75.2863684 195.8937374 123.8194533  75.4655830
 193.8266078 125.5715210  74.8280000 195.1020000 122.2150000  75.0000000
 191.6210000 127.8350000  83.7970000 192.0590000 127.5130000  82.4790000
 193.5756870 127.6460422  82.4110128 194.1818325 126.7454892  83.3352661
 190.6510000 127.7180000  83.7770000 191.5791500 128.1960745  81.7719185
 191.7504998 126.4848257  82.2659032 193.8917786 128.6589699  82.6820657
 193.9438866 127.4130970  81.4084997 193.7472520 126.9303657  84.1908065
 193.5530000 125.0510000  89.2200000 191.4990000 126.1980000  88.1040000
 191.6099214 127.4311885  88.9989740 190.7348707 125.1128749  88.8487234
 196.1148790 124.5205784  86.5677728 195.5482276 124.6400000  87.9930000
 194.1310000 124.6400000  87.9930000 194.2520000 123.6680000  88.0240000
 193.7271057 124.0911082  88.7202381 193.3333487 124.9004789  90.2787628
 192.6444599 127.7963217  88.9557677 191.3523039 127.1425211  90.0230313
 190.9524407 128.2141457  88.6232770 191.1419448 124.1390218  88.5557150
 189.6795256 125.1672270  88.5740774 190.8645857 125.2735068  89.9226063
 195.7239904 125.3334292  85.9449391 197.2081579 124.5773141  86.5897570
 195.8973253 125.5697113  88.4513684 195.8937374 123.8194533  88.6305830
 193.8266078 125.5715210  87.9930000 195.1020000 122.2150000  88.1650000
 191.6210000 127.8350000  96.9620000 192.0590000 127.5130000  95.6440000
 193.5756870 127.6460422  95.5760128 194.1818325 126.7454892  96.5002661
 190.6510000 127.7180000  96.9420000 191.5791500 128.1960745  94.9369185
 191.7504998 126.4848257  95.4309032 193.8917786 128.6589699  95.8470657
 193.9438866 127.4130970  94.5734997 193.7472520 126.9303657  97.3558065
 193.5530000 125.0510000 102.3850000 191.4990000 126.1980000 101.2690000
 191.6099214 127.4311885 102.1639740 190.7348707 125.1128749 102.0137234
 196.1148790 124.5205784  99.7327728 195.5482276 124.6400000 101.1580000
 194.1310000 124.6400000 101.1580000 194.2520000 123.6680000 101.1890000
 193.7271057 124.0911082 101.8852381 193.3333487 124.9004789 103.4437628
 192.6444599 127.7963217 102.1207677 191.3523039 127.1425211 103.1880313
 190.9524407 128.2141457 101.7882770 191.1419448 124.1390218 101.7207150
 189.6795256 125.1672270 101.7390774 190.8645857 125.2735068 103.0876063
 195.7239904 125.3334292  99.1099391 197.2081579 124.5773141  99.7547570
 195.8973253 125.5697113 101.6163684 195.8937374 123.8194533 101.7955830
 193.8266078 125.5715210 101.1580000 195.1020000 122.2150000 101.3300000
 191.6210000 127.8350000 110.1270000 192.0590000 127.5130000 108.8090000
 193.5756870 127.6460422 108.7410128 194.1818325 126.7454892 109.6652661
 190.6510000 127.7180000 110.1070000 191.5791500 128.1960745 108.1019185
 191.7504998 126.4848257 108.5959032 193.8917786 128.6589699 109.0120657
 193.9438866 127.4130970 107.7384997 193.7472520 126.9303657 110.5208065
 193.5530000 125.0510000 115.5510000 191.4990000 126.1980000 114.4350000
 191.6099214 127.4311885 115.3299740 190.7348707 125.1128749 115.1797234
 196.1148790 124.5205784 112.8987728 195.5482276 124.6400000 114.3240000
 194.1310000 124.6400000 114.3240000 194.2520000 123.6680000 114.3550000
 193.7271057 124.0911082 115.0512381 193.3333487 124.9004789 116.6097628
 192.6444599 127.7963217 115.2867677 191.3523039 127.1425211 116.3540313
 190.9524407 128.2141457 114.9542770 191.1419448 124.1390218 114.8867150
 189.6795256 125.1672270 114.9050774 190.8645857 125.2735068 116.2536063
 195.7239904 125.3334292 112.2759391 197.2081579 124.5773141 112.9207570
 195.8973253 125.5697113 114.7823684 195.8937374 123.8194533 114.9615830
 193.8266078 125.5715210 114.3240000 195.1020000 122.2150000 114.4960000
 191.6210000 127.8350000 123.2930000 192.0590000 127.5130000 121.9750000
 193.5756870 127.6460422 121.9070128 194.1818325 126.7454892 122.8312661
 190.6510000 127.7180000 123.2730000 191.5791500 128.1960745 121.2679185
 191.7504998 126.4848257 121.7619032 193.8917786 128.6589699 122.1780657
 193.9438866 127.4130970 120.9044997 193.7472520 126.9303657 123.6868065
 193.5530000 125.0510000 128.7160000 191.4990000 126.1980000 127.6000000
 191.6099214 127.4311885 128.4949740 190.7348707 125.1128749 128.3447234
 196.1148790 124.5205784 126.0637728 195.5482276 124.6400000 127.4890000
 194.1310000 124.6400000 127.4890000 194.2520000 123.6680000 127.5200000
 193.7271057 124.0911082 128.2162381 193.3333487 124.9004789 129.7747628
 192.6444599 127.7963217 128.4517677 191.3523039 127.1425211 129.5190313
 190.9524407 128.2141457 128.1192770 191.1419448 124.1390218 128.0517150
 189.6795256 125.1672270 128.0700774 190.8645857 125.2735068 129.4186063
 195.7239904 125.3334292 125.4409391 197.2081579 124.5773141 126.0857570
 195.8973253 125.5697113 127.9473684 195.8937374 123.8194533 128.1265830
 193.8266078 125.5715210 127.4890000 195.1020000 122.2150000 127.6610000
 191.6210000 127.8350000 136.4580000 192.0590000 127.5130000 135.1400000
 193.5756870 127.6460422 135.0720128 194.1818325 126.7454892 135.9962661
 190.6510000 127.7180000 136.4380000 191.5791500 128.1960745 134.4329185
 191.7504998 126.4848257 134.9269032 193.8917786 128.6589699 135.3430657
 193.9438866 127.4130970 134.0694997 193.7472520 126.9303657 136.8518065
 193.5530000 125.0510000 141.8810000 191.4990000 126.1980000 140.7650000
 191.6099214 127.4311885 141.6599740 190.7348707 125.1128749 141.5097234
 196.1148790 124.5205784 139.2287728 195.5482276 124.6400000 140.6540000
 194.1310000 124.6400000 140.6540000 194.2520000 123.6680000 140.6850000
 193.7271057 124.0911082 141.3812381 193.3333487 124.9004789 142.9397628
 192.6444599 127.7963217 141.6167677 191.3523039 127.1425211 142.6840313
 190.9524407 128.2141457 141.2842770 191.1419448 124.1390218 141.2167150
 189.6795256 125.1672270 141.2350774 190.8645857 125.2735068 142.5836063
 195.7239904 125.3334292 138.6059391 197.2081579 124.5773141 139.2507570
 195.8973253 125.5697113 141.1123684 195.8937374 123.8194533 141.2915830
 193.8266078 125.5715210 140.6540000 195.1020000 122.2150000 140.8260000
 191.6210000 127.8350000 149.6230000 192.0590000 127.5130000 148.3050000
 193.5756870 127.6460422 148.2370128 194.1818325 126.7454892 149.1612661
 190.6510000 127.7180000 149.6030000 191.5791500 128.1960745 147.5979185
 191.7504998 126.4848257 148.0919032 193.8917786 128.6589699 148.5080657
 193.9438866 127.4130970 147.2344997 193.7472520 126.9303657 150.0168065
 193.5530000 125.0510000 155.0460000 191.4990000 126.1980000 153.9300000
 191.6099214 127.4311885 154.8249740 190.7348707 125.1128749 154.6747234
 196.1148790 124.5205784 152.3937728 195.5482276 124.6400000 153.8190000
 194.1310000 124.6400000 153.8190000 194.2520000 123.6680000 153.8500000
 193.7271057 124.0911082 154.5462381 193.3333487 124.9004789 156.1047628
 192.6444599 127.7963217 154.7817677 191.3523039 127.1425211 155.8490313
 190.9524407 128.2141457 154.4492770 191.1419448 124.1390218 154.3817150
 189.6795256 125.1672270 154.4000774 190.8645857 125.2735068 155.7486063
 195.7239904 125.3334292 151.7709391 197.2081579 124.5773141 152.4157570
 195.8973253 125.5697113 154.2773684 195.8937374 123.8194533 154.4565830
 193.8266078 125.5715210 153.8190000 195.1020000 122.2150000 153.9910000
 191.6210000 127.8350000 162.7880000 192.0590000 127.5130000 161.4700000
 193.5756870 127.6460422 161.4020128 194.1818325 126.7454892 162.3262661
 190.6510000 127.7180000 162.7680000 191.5791500 128.1960745 160.7629185
 191.7504998 126.4848257 161.2569032 193.8917786 128.6589699 161.6730657
 193.9438866 127.4130970 160.3994997 193.7472520 126.9303657 163.1818065
 193.5530000 125.0510000 168.2110000 191.4990000 126.1980000 167.0950000
 191.6099214 127.4311885 167.9899740 190.7348707 125.1128749 167.8397234
 196.1148790 124.5205784 165.5587728 195.5482276 124.6400000 166.9840000
 194.1310000 124.6400000 166.9840000 194.2520000 123.6680000 167.0150000
 193.7271057 124.0911082 167.7112381 193.3333487 124.9004789 169.2697628
 192.6444599 127.7963217 167.9467677 191.3523039 127.1425211 169.0140313
 190.9524407 128.2141457 167.6142770 191.1419448 124.1390218 167.5467150
 189.6795256 125.1672270 167.5650774 190.8645857 125.2735068 168.9136063
 195.7239904 125.3334292 164.9359391 197.2081579 124.5773141 165.5807570
 195.8973253 125.5697113 167.4423684 195.8937374 123.8194533 167.6215830
 193.8266078 125.5715210 166.9840000 195.1020000 122.2150000 167.1560000
 191.6210000 127.8350000 175.9530000 192.0590000 127.5130000 174.6350000
 193.5756870 127.6460422 174.5670128 194.1818325 126.7454892 175.4912661
 190.6510000 127.7180000 175.9330000 191.5791500 128.1960745 173.9279185
 191.7504998 126.4848257 174.4219032 193.8917786 128.6589699 174.8380657
 193.9438866 127.4130970 173.5644997 193.7472520 126.9303657 176.3468065
 193.5530000 125.0510000 181.3770000 191.4990000 126.1980000 180.2610000
 191.6099214 127.4311885 181.1559740 190.7348707 125.1128749 181.0057234
 196.1148790 124.5205784 178.7247728 195.5482276 124.6400000 180.1500000
 194.1310000 124.6400000 180.1500000 194.2520000 123.6680000 180.1810000
 193.7271057 124.0911082 180.8772381 193.3333487 124.9004789 182.4357628
 192.6444599 127.7963217 181.1127677 191.3523039 127.1425211 182.1800313
 190.9524407 128.2141457 180.7802770 191.1419448 124.1390218 180.7127150
 189.6795256 125.1672270 180.7310774 190.8645857 125.2735068 182.0796063
 195.7239904 125.3334292 178.1019391 197.2081579 124.5773141 178.7467570
 195.8973253 125.5697113 180.6083684 195.8937374 123.8194533 180.7875830
 193.8266078 125.5715210 180.1500000 195.1020000 122.2150000 180.3220000
 191.6210000 127.8350000 189.1190000 192.0590000 127.5130000 187.8010000
 193.5756870 127.6460422 187.7330128 194.1818325 126.7454892 188.6572661
 190.6510000 127.7180000 189.0990000 191.5791500 128.1960745 187.0939185
 191.7504998 126.4848257 187.5879032 193.8917786 128.6589699 188.0040657
 193.9438866 127.4130970 186.7304997 193.7472520 126.9303657 189.5128065
 193.5530000 125.0510000 194.5420000 191.4990000 126.1980000 193.4260000
 191.6099214 127.4311885 194.3209740 190.7348707 125.1128749 194.1707234
 196.1148790 124.5205784 191.8897728 195.5482276 124.6400000 193.3150000
 194.1310000 124.6400000 193.3150000 194.2520000 123.6680000 193.3460000
 193.7271057 124.0911082 194.0422381 193.3333487 124.9004789 195.6007628
 192.6444599 127.7963217 194.2777677 191.3523039 127.1425211 195.3450313
 190.9524407 128.2141457 193.9452770 191.1419448 124.1390218 193.8777150
 189.6795256 125.1672270 193.8960774 190.8645857 125.2735068 195.2446063
 195.7239904 125.3334292 191.2669391 197.2081579 124.5773141 191.9117570
 195.8973253 125.5697113 193.7733684 195.8937374 123.8194533 193.9525830
 193.8266078 125.5715210 193.3150000 195.1020000 122.2150000 193.4870000
 191.6210000 127.8350000 202.2840000 192.0590000 127.5130000 200.9660000
 193.5756870 127.6460422 200.8980128 194.1818325 126.7454892 201.8222661
 190.6510000 127.7180000 202.2640000 191.5791500 128.1960745 200.2589185
 191.7504998 126.4848257 200.7529032 193.8917786 128.6589699 201.1690657
 193.9438866 127.4130970 199.8954997 193.7472520 126.9303657 202.6778065
 193.5530000 132.3670000  76.0550000 191.4990000 133.5140000  74.9390000
 191.6099214 134.7471885  75.8339740 190.7348707 132.4288749  75.6837234
 196.1148790 131.8365784  73.4027728 195.5482276 131.9560000  74.8280000
 194.1310000 131.9560000  74.8280000 194.2520000 130.9840000  74.8590000
 193.7271057 131.4071082  75.5552381 193.3333487 132.2164789  77.1137628
 192.6444599 135.1123217  75.7907677 191.3523039 134.4585211  76.8580313
 190.9524407 135.5301457  75.4582770 191.1419448 131.4550218  75.3907150
 189.6795256 132.4832270  75.4090774 190.8645857 132.5895068  76.7576063
 195.7239904 132.6494292  72.7799391 197.2081579 131.8933141  73.4247570
 195.8973253 132.8857113  75.2863684 195.8937374 131.1354533  75.4655830
 193.8266078 132.8875210  74.8280000 195.1020000 129.5310000  75.0000000
 191.6210000 135.1510000  83.7970000 192.0590000 134.8290000  82.4790000
 193.5756870 134.9620422  82.4110128 194.1818325 134.0614892  83.3352661
 190.6510000 135.0340000  83.7770000 191.5791500 135.5120745  81.7719185
 191.7504998 133.8008257  82.2659032 193.8917786 135.9749699  82.6820657
 193.9438866 134.7290970  81.4084997 193.7472520 134.2463657  84.1908065
 193.5530000 132.3670000  89.2200000 191.4990000 133.5140000  88.1040000
 191.6099214 134.7471885  88.9989740 190.7348707 132.4288749  88.8487234
 196.1148790 131.8365784  86.5677728 195.5482276 131.9560000  87.9930000
 194.1310000 131.9560000  87.9930000 194.2520000 130.9840000  88.0240000
 193.7271057 131.4071082  88.7202381 193.3333487 132.2164789  90.2787628
 192.6444599 135.1123217  88.9557677 191.3523039 134.4585211  90.0230313
 190.9524407 135.5301457  88.6232770 191.1419448 131.4550218  88.5557150
 189.6795256 132.4832270  88.5740774 190.8645857 132.5895068  89.9226063
 195.7239904 132.6494292  85.9449391 197.2081579 131.8933141  86.5897570
 195.8973253 132.8857113  88.4513684 195.8937374 131.1354533  88.6305830
 193.8266078 132.8875210  87.9930000 195.1020000 129.5310000  88.1650000
 191.6210000 135.1510000  96.9620000 192.0590000 134.8290000  95.6440000
 193.5756870 134.9620422  95.5760128 194.1818325 134.0614892  96.5002661
 190.6510000 135.0340000  96.9420000 191.5791500 135.5120745  94.9369185
 191.7504998 133.8008257  95.4309032 193.8917786 135.9749699  95.8470657
 193.9438866 134.7290970  94.5734997 193.7472520 134.2463657  97.3558065
 193.5530000 132.3670000 102.3850000 191.4990000 133.5140000 101.2690000
 191.6099214 134.7471885 102.1639740 190.7348707 132.4288749 102.0137234
 196.1148790 131.8365784  99.7327728 195.5482276 131.9560000 101.1580000
 194.1310000 131.9560000 101.1580000 194.2520000 130.9840000 101.1890000
 193.7271057 131.4071082 101.8852381 193.3333487 132.2164789 103.4437628
 192.6444599 135.1123217 102.1207677 191.3523039 134.4585211 103.1880313
 190.9524407 135.5301457 101.7882770 191.1419448 131.4550218 101.7207150
 189.6795256 132.4832270 101.7390774 190.8645857 132.5895068 103.0876063
 195.7239904 132.6494292  99.1099391 197.2081579 131.8933141  99.7547570
 195.8973253 132.8857113 101.6163684 195.8937374 131.1354533 101.7955830
 193.8266078 132.8875210 101.1580000 195.1020000 129.5310000 101.3300000
 191.6210000 135.1510000 110.1270000 192.0590000 134.8290000 108.8090000
 193.5756870 134.9620422 108.7410128 194.1818325 134.0614892 109.6652661
 190.6510000 135.0340000 110.1070000 191.5791500 135.5120745 108.1019185
 191.7504998 133.8008257 108.5959032 193.8917786 135.9749699 109.0120657
 193.9438866 134.7290970 107.7384997 193.7472520 134.2463657 110.5208065
 193.5530000 132.3670000 115.5510000 191.4990000 133.5140000 114.4350000
 191.6099214 134.7471885 115.3299740 190.7348707 132.4288749 115.1797234
 196.1148790 131.8365784 112.8987728 195.5482276 131.9560000 114.3240000
 194.1310000 131.9560000 114.3240000 194.2520000 130.9840000 114.3550000
 193.7271057 131.4071082 115.0512381 193.3333487 132.2164789 116.6097628
 192.6444599 135.1123217 115.2867677 191.3523039 134.4585211 116.3540313
 190.9524407 135.5301457 114.9542770 191.1419448 131.4550218 114.8867150
 189.6795256 132.4832270 114.9050774 190.8645857 132.5895068 116.2536063
 195.7239904 132.6494292 112.2759391 197.2081579 131.8933141 112.9207570
 195.8973253 132.8857113 114.7823684 195.8937374 131.1354533 114.9615830
 193.8266078 132.8875210 114.3240000 195.1020000 129.5310000 114.4960000
 191.6210000 135.1510000 123.2930000 192.0590000 134.8290000 121.9750000
 193.5756870 134.9620422 121.9070128 194.1818325 134.0614892 122.8312661
 190.6510000 135.0340000 123.2730000 191.5791500 135.5120745 121.2679185
 191.7504998 133.8008257 121.7619032 193.8917786 135.9749699 122.1780657
 193.9438866 134.7290970 120.9044997 193.7472520 134.2463657 123.6868065
 193.5530000 132.3670000 128.7160000 191.4990000 133.5140000 127.6000000
 191.6099214 134.7471885 128.4949740 190.7348707 132.4288749 128.3447234
 196.1148790 131.8365784 126.0637728 195.5482276 131.9560000 127.4890000
 194.1310000 131.9560000 127.4890000 194.2520000 130.9840000 127.5200000
 193.7271057 131.4071082 128.2162381 193.3333487 132.2164789 129.7747628
 192.6444599 135.1123217 128.4517677 191.3523039 134.4585211 129.5190313
 190.9524407 135.5301457 128.1192770 191.1419448 131.4550218 128.0517150
 189.6795256 132.4832270 128.0700774 190.8645857 132.5895068 129.4186063
 195.7239904 132.6494292 125.4409391 197.2081579 131.8933141 126.0857570
 195.8973253 132.8857113 127.9473684 195.8937374 131.1354533 128.1265830
 193.8266078 132.8875210 127.4890000 195.1020000 129.5310000 127.6610000
 191.6210000 135.1510000 136.4580000 192.0590000 134.8290000 135.1400000
 193.5756870 134.9620422 135.0720128 194.1818325 134.0614892 135.9962661
 190.6510000 135.0340000 136.4380000 191.5791500 135.5120745 134.4329185
 191.7504998 133.8008257 134.9269032 193.8917786 135.9749699 135.3430657
 193.9438866 134.7290970 134.0694997 193.7472520 134.2463657 136.8518065
 193.5530000 132.3670000 141.8810000 191.4990000 133.5140000 140.7650000
 191.6099214 134.7471885 141.6599740 190.7348707 132.4288749 141.5097234
 196.1148790 131.8365784 139.2287728 195.5482276 131.9560000 140.6540000
 194.1310000 131.9560000 140.6540000 194.2520000 130.9840000 140.6850000
 193.7271057 131.4071082 141.3812381 193.3333487 132.2164789 142.9397628
 192.6444599 135.1123217 141.6167677 191.3523039 134.4585211 142.6840313
 190.9524407 135.5301457 141.2842770 191.1419448 131.4550218 141.2167150
 189.6795256 132.4832270 141.2350774 190.8645857 132.5895068 142.5836063
 195.7239904 132.6494292 138.6059391 197.2081579 131.8933141 139.2507570
 195.8973253 132.8857113 141.1123684 195.8937374 131.1354533 141.2915830
 193.8266078 132.8875210 140.6540000 195.1020000 129.5310000 140.8260000
 191.6210000 135.1510000 149.6230000 192.0590000 134.8290000 148.3050000
 193.5756870 134.9620422 148.2370128 194.1818325 134.0614892 149.1612661
 190.6510000 135.0340000 149.6030000 191.5791500 135.5120745 147.5979185
 191.7504998 133.8008257 148.0919032 193.8917786 135.9749699 148.5080657
 193.9438866 134.7290970 147.2344997 193.7472520 134.2463657 150.0168065
 193.5530000 132.3670000 155.0460000 191.4990000 133.5140000 153.9300000
 191.6099214 134.7471885 154.8249740 190.7348707 132.4288749 154.6747234
 196.1148790 131.8365784 152.3937728 195.5482276 131.9560000 153.8190000
 194.1310000 131.9560000 153.8190000 194.2520000 130.9840000 153.8500000
 193.7271057 131.4071082 154.5462381 193.3333487 132.2164789 156.1047628
 192.6444599 135.1123217 154.7817677 191.3523039 134.4585211 155.8490313
 190.9524407 135.5301457 154.4492770 191.1419448 131.4550218 154.3817150
 189.6795256 132.4832270 154.4000774 190.8645857 132.5895068 155.7486063
 195.7239904 132.6494292 151.7709391 197.2081579 131.8933141 152.4157570
 195.8973253 132.8857113 154.2773684 195.8937374 131.1354533 154.4565830
 193.8266078 132.8875210 153.8190000 195.1020000 129.5310000 153.9910000
 191.6210000 135.1510000 162.7880000 192.0590000 134.8290000 161.4700000
 193.5756870 134.9620422 161.4020128 194.1818325 134.0614892 162.3262661
 190.6510000 135.0340000 162.7680000 191.5791500 135.5120745 160.7629185
 191.7504998 133.8008257 161.2569032 193.8917786 135.9749699 161.6730657
 193.9438866 134.7290970 160.3994997 193.7472520 134.2463657 163.1818065
 193.5530000 132.3670000 168.2110000 191.4990000 133.5140000 167.0950000
 191.6099214 134.7471885 167.9899740 190.7348707 132.4288749 167.8397234
 196.1148790 131.8365784 165.5587728 195.5482276 131.9560000 166.9840000
 194.1310000 131.9560000 166.9840000 194.2520000 130.9840000 167.0150000
 193.7271057 131.4071082 167.7112381 193.3333487 132.2164789 169.2697628
 192.6444599 135.1123217 167.9467677 191.3523039 134.4585211 169.0140313
 190.9524407 135.5301457 167.6142770 191.1419448 131.4550218 167.5467150
 189.6795256 132.4832270 167.5650774 190.8645857 132.5895068 168.9136063
 195.7239904 132.6494292 164.9359391 197.2081579 131.8933141 165.5807570
 195.8973253 132.8857113 167.4423684 195.8937374 131.1354533 167.6215830
 193.8266078 132.8875210 166.9840000 195.1020000 129.5310000 167.1560000
 191.6210000 135.1510000 175.9530000 192.0590000 134.8290000 174.6350000
 193.5756870 134.9620422 174.5670128 194.1818325 134.0614892 175.4912661
 190.6510000 135.0340000 175.9330000 191.5791500 135.5120745 173.9279185
 191.7504998 133.8008257 174.4219032 193.8917786 135.9749699 174.8380657
 193.9438866 134.7290970 173.5644997 193.7472520 134.2463657 176.3468065
 193.5530000 132.3670000 181.3770000 191.4990000 133.5140000 180.2610000
 191.6099214 134.7471885 181.1559740 190.7348707 132.4288749 181.0057234
 196.1148790 131.8365784 178.7247728 195.5482276 131.9560000 180.1500000
 194.1310000 131.9560000 180.1500000 194.2520000 130.9840000 180.1810000
 193.7271057 131.4071082 180.8772381 193.3333487 132.2164789 182.4357628
 192.6444599 135.1123217 181.1127677 191.3523039 134.4585211 182.1800313
 190.9524407 135.5301457 180.7802770 191.1419448 131.4550218 180.7127150
 189.6795256 132.4832270 180.7310774 190.8645857 132.5895068 182.0796063
 195.7239904 132.6494292 178.1019391 197.2081579 131.8933141 178.7467570
 195.8973253 132.8857113 180.6083684 195.8937374 131.1354533 180.7875830
 193.8266078 132.8875210 180.1500000 195.1020000 129.5310000 180.3220000
 191.6210000 135.1510000 189.1190000 192.0590000 134.8290000 187.8010000
 193.5756870 134.9620422 187.7330128 194.1818325 134.0614892 188.6572661
 190.6510000 135.0340000 189.0990000 191.5791500 135.5120745 187.0939185
 191.7504998 133.8008257 187.5879032 193.8917786 135.9749699 188.0040657
 193.9438866 134.7290970 186.7304997 193.7472520 134.2463657 189.5128065
 193.5530000 132.3670000 194.5420000 191.4990000 133.5140000 193.4260000
 191.6099214 134.7471885 194.3209740 190.7348707 132.4288749 194.1707234
 196.1148790 131.8365784 191.8897728 195.5482276 131.9560000 193.3150000
 194.1310000 131.9560000 193.3150000 194.2520000 130.9840000 193.3460000
 193.7271057 131.4071082 194.0422381 193.3333487 132.2164789 195.6007628
 192.6444599 135.1123217 194.2777677 191.3523039 134.4585211 195.3450313
 190.9524407 135.5301457 193.9452770 191.1419448 131.4550218 193.8777150
 189.6795256 132.4832270 193.8960774 190.8645857 132.5895068 195.2446063
 195.7239904 132.6494292 191.2669391 197.2081579 131.8933141 191.9117570
 195.8973253 132.8857113 193.7733684 195.8937374 131.1354533 193.9525830
 193.8266078 132.8875210 193.3150000 195.1020000 129.5310000 193.4870000
 191.6210000 135.1510000 202.2840000 192.0590000 134.8290000 200.9660000
 193.5756870 134.9620422 200.8980128 194.1818325 134.0614892 201.8222661
 190.6510000 135.0340000 202.2640000 191.5791500 135.5120745 200.2589185
 191.7504998 133.8008257 200.7529032 193.8917786 135.9749699 201.1690657
 193.9438866 134.7290970 199.8954997 193.7472520 134.2463657 202.6778065
 193.5530000 139.6840000  76.0550000 191.4990000 140.8310000  74.9390000
 191.6099214 142.0641885  75.8339740 190.7348707 139.7458749  75.6837234
 196.1148790 139.1535784  73.4027728 195.5482276 139.2730000  74.8280000
 194.1310000 139.2730000  74.8280000 194.2520000 138.3010000  74.8590000
 193.7271057 138.7241082  75.5552381 193.3333487 139.5334789  77.1137628
 192.6444599 142.4293217  75.7907677 191.3523039 141.7755211  76.8580313
 190.9524407 142.8471457  75.4582770 191.1419448 138.7720218  75.3907150
 189.6795256 139.8002270  75.4090774 190.8645857 139.9065068  76.7576063
 195.7239904 139.9664292  72.7799391 197.2081579 139.2103141  73.4247570
 195.8973253 140.2027113  75.2863684 195.8937374 138.4524533  75.4655830
 193.8266078 140.2045210  74.8280000 195.1020000 136.8480000  75.0000000
 191.6210000 142.4680000  83.7970000 192.0590000 142.1460000  82.4790000
 193.5756870 142.2790422  82.4110128 194.1818325 141.3784892  83.3352661
 190.6510000 142.3510000  83.7770000 191.5791500 142.8290745  81.7719185
 191.7504998 141.1178257  82.2659032 193.8917786 143.2919699  82.6820657
 193.9438866 142.0460970  81.4084997 193.7472520 141.5633657  84.1908065
 193.5530000 139.6840000  89.2200000 191.4990000 140.8310000  88.1040000
 191.6099214 142.0641885  88.9989740 190.7348707 139.7458749  88.8487234
 196.1148790 139.1535784  86.5677728 195.5482276 139.2730000  87.9930000
 194.1310000 139.2730000  87.9930000 194.2520000 138.3010000  88.0240000
 193.7271057 138.7241082  88.7202381 193.3333487 139.5334789  90.2787628
 192.6444599 142.4293217  88.9557677 191.3523039 141.7755211  90.0230313
 190.9524407 142.8471457  88.6232770 191.1419448 138.7720218  88.5557150
 189.6795256 139.8002270  88.5740774 190.8645857 139.9065068  89.9226063
 195.7239904 139.9664292  85.9449391 197.2081579 139.2103141  86.5897570
 195.8973253 140.2027113  88.4513684 195.8937374 138.4524533  88.6305830
 193.8266078 140.2045210  87.9930000 195.1020000 136.8480000  88.1650000
 191.6210000 142.4680000  96.9620000 192.0590000 142.1460000  95.6440000
 193.5756870 142.2790422  95.5760128 194.1818325 141.3784892  96.5002661
 190.6510000 142.3510000  96.9420000 191.5791500 142.8290745  94.9369185
 191.7504998 141.1178257  95.4309032 193.8917786 143.2919699  95.8470657
 193.9438866 142.0460970  94.5734997 193.7472520 141.5633657  97.3558065
 193.5530000 139.6840000 102.3850000 191.4990000 140.8310000 101.2690000
 191.6099214 142.0641885 102.1639740 190.7348707 139.7458749 102.0137234
 196.1148790 139.1535784  99.7327728 195.5482276 139.2730000 101.1580000
 194.1310000 139.2730000 101.1580000 194.2520000 138.3010000 101.1890000
 193.7271057 138.7241082 101.8852381 193.3333487 139.5334789 103.4437628
 192.6444599 142.4293217 102.1207677 191.3523039 141.7755211 103.1880313
 190.9524407 142.8471457 101.7882770 191.1419448 138.7720218 101.7207150
 189.6795256 139.8002270 101.7390774 190.8645857 139.9065068 103.0876063
 195.7239904 139.9664292  99.1099391 197.2081579 139.2103141  99.7547570
 195.8973253 140.2027113 101.6163684 195.8937374 138.4524533 101.7955830
 193.8266078 140.2045210 101.1580000 195.1020000 136.8480000 101.3300000
 191.6210000 142.4680000 110.1270000 192.0590000 142.1460000 108.8090000
 193.5756870 142.2790422 108.7410128 194.1818325 141.3784892 109.6652661
 190.6510000 142.3510000 110.1070000 191.5791500 142.8290745 108.1019185
 191.7504998 141.1178257 108.5959032 193.8917786 143.2919699 109.0120657
 193.9438866 142.0460970 107.7384997 193.7472520 141.5633657 110.5208065
 193.5530000 139.6840000 115.5510000 191.4990000 140.8310000 114.4350000
 191.6099214 142.0641885 115.3299740 190.7348707 139.7458749 115.1797234
 196.1148790 139.1535784 112.8987728 195.5482276 139.2730000 114.3240000
 194.1310000 139.2730000 114.3240000 194.2520000 138.3010000 114.3550000
 193.7271057 138.7241082 115.0512381 193.3333487 139.5334789 116.6097628
 192.6444599 142.4293217 115.2867677 191.3523039 141.7755211 116.3540313
 190.9524407 142.8471457 114.9542770 191.1419448 138.7720218 114.8867150
 189.6795256 139.8002270 114.9050774 190.8645857 139.9065068 116.2536063
 195.7239904 139.9664292 112.2759391 197.2081579 139.2103141 112.9207570
 195.8973253 140.2027113 114.7823684 195.8937374 138.4524533 114.9615830
 193.8266078 140.2045210 114.3240000 195.1020000 136.8480000 114.4960000
 191.6210000 142.4680000 123.2930000 192.0590000 142.1460000 121.9750000
 193.5756870 142.2790422 121.9070128 194.1818325 141.3784892 122.8312661
 190.6510000 142.3510000 123.2730000 191.5791500 142.8290745 121.2679185
 191.7504998 141.1178257 121.7619032 193.8917786 143.2919699 122.1780657
 193.9438866 142.0460970 120.9044997 193.7472520 141.5633657 123.6868065
 193.5530000 139.6840000 128.7160000 191.4990000 140.8310000 127.6000000
 191.6099214 142.0641885 128.4949740 190.7348707 139.7458749 128.3447234
 196.1148790 139.1535784 126.0637728 195.5482276 139.2730000 127.4890000
 194.1310000 139.2730000 127.4890000 194.2520000 138.3010000 127.5200000
 193.7271057 138.7241082 128.2162381 193.3333487 139.5334789 129.7747628
 192.6444599 142.4293217 128.4517677 191.3523039 141.7755211 129.5190313
 190.9524407 142.8471457 128.1192770 191.1419448 138.7720218 128.0517150
 189.6795256 139.8002270 128.0700774 190.8645857 139.9065068 129.4186063
 195.7239904 139.9664292 125.4409391 197.2081579 139.2103141 126.0857570
 195.8973253 140.2027113 127.9473684 195.8937374 138.4524533 128.1265830
 193.8266078 140.2045210 127.4890000 195.1020000 136.8480000 127.6610000
 191.6210000 142.4680000 136.4580000 192.0590000 142.1460000 135.1400000
 193.5756870 142.2790422 135.0720128 194.1818325 141.3784892 135.9962661
 190.6510000 142.3510000 136.4380000 191.5791500 142.8290745 134.4329185
 191.7504998 141.1178257 134.9269032 193.8917786 143.2919699 135.3430657
 193.9438866 142.0460970 134.0694997 193.7472520 141.5633657 136.8518065
 193.5530000 139.6840000 141.8810000 191.4990000 140.8310000 140.7650000
 191.6099214 142.0641885 141.6599740 190.7348707 139.7458749 141.5097234
 196.1148790 139.1535784 139.2287728 195.5482276 139.2730000 140.6540000
 194.1310000 139.2730000 140.6540000 194.2520000 138.3010000 140.6850000
 193.7271057 138.7241082 141.3812381 193.3333487 139.5334789 142.9397628
 192.6444599 142.4293217 141.6167677 191.3523039 141.7755211 142.6840313
 190.9524407 142.8471457 141.2842770 191.1419448 138.7720218 141.2167150
 189.6795256 139.8002270 141.2350774 190.8645857 139.9065068 142.5836063
 195.7239904 139.9664292 138.6059391 197.2081579 139.2103141 139.2507570
 195.8973253 140.2027113 141.1123684 195.8937374 138.4524533 141.2915830
 193.8266078 140.2045210 140.6540000 195.1020000 136.8480000 140.8260000
 191.6210000 142.4680000 149.6230000 192.0590000 142.1460000 148.3050000
 193.5756870 142.2790422 148.2370128 194.1818325 141.3784892 149.1612661
 190.6510000 142.3510000 149.6030000 191.5791500 142.8290745 147.5979185
 191.7504998 141.1178257 148.0919032 193.8917786 143.2919699 148.5080657
 193.9438866 142.0460970 147.2344997 193.7472520 141.5633657 150.0168065
 193.5530000 139.6840000 155.0460000 191.4990000 140.8310000 153.9300000
 191.6099214 142.0641885 154.8249740 190.7348707 139.7458749 154.6747234
 196.1148790 139.1535784 152.3937728 195.5482276 139.2730000 153.8190000
 194.1310000 139.2730000 153.8190000 194.2520000 138.3010000 153.8500000
 193.7271057 138.7241082 154.5462381 193.3333487 139.5334789 156.1047628
 192.6444599 142.4293217 154.7817677 191.3523039 141.7755211 155.8490313
 190.9524407 142.8471457 154.4492770 191.1419448 138.7720218 154.3817150
 189.6795256 139.8002270 154.4000774 190.8645857 139.9065068 155.7486063
 195.7239904 139.9664292 151.7709391 197.2081579 139.2103141 152.4157570
 195.8973253 140.2027113 154.2773684 195.8937374 138.4524533 154.4565830
 193.8266078 140.2045210 153.8190000 195.1020000 136.8480000 153.9910000
 191.6210000 142.4680000 162.7880000 192.0590000 142.1460000 161.4700000
 193.5756870 142.2790422 161.4020128 194.1818325 141.3784892 162.3262661
 190.6510000 142.3510000 162.7680000 191.5791500 142.8290745 160.7629185
 191.7504998 141.1178257 161.2569032 193.8917786 143.2919699 161.6730657
 193.9438866 142.0460970 160.3994997 193.7472520 141.5633657 163.1818065
 193.5530000 139.6840000 168.2110000 191.4990000 140.8310000 167.0950000
 191.6099214 142.0641885 167.9899740 190.7348707 139.7458749 167.8397234
 196.1148790 139.1535784 165.5587728 195.5482276 139.2730000 166.9840000
 194.1310000 139.2730000 166.9840000 194.2520000 138.3010000 167.0150000
 193.7271057 138.7241082 167.7112381 193.3333487 139.5334789 169.2697628
 192.6444599 142.4293217 167.9467677 191.3523039 141.7755211 169.0140313
 190.9524407 142.8471457 167.6142770 191.1419448 138.7720218 167.5467150
 189.6795256 139.8002270 167.5650774 190.8645857 139.9065068 168.9136063
 195.7239904 139.9664292 164.9359391 197.2081579 139.2103141 165.5807570
 195.8973253 140.2027113 167.4423684 195.8937374 138.4524533 167.6215830
 193.8266078 140.2045210 166.9840000 195.1020000 136.8480000 167.1560000
 191.6210000 142.4680000 175.9530000 192.0590000 142.1460000 174.6350000
 193.5756870 142.2790422 174.5670128 194.1818325 141.3784892 175.4912661
 190.6510000 142.3510000 175.9330000 191.5791500 142.8290745 173.9279185
 191.7504998 141.1178257 174.4219032 193.8917786 143.2919699 174.8380657
 193.9438866 142.0460970 173.5644997 193.7472520 141.5633657 176.3468065
 193.5530000 139.6840000 181.3770000 191.4990000 140.8310000 180.2610000
 191.6099214 142.0641885 181.1559740 190.7348707 139.7458749 181.0057234
 196.1148790 139.1535784 178.7247728 195.5482276 139.2730000 180.1500000
 194.1310000 139.2730000 180.1500000 194.2520000 138.3010000 180.1810000
 193.7271057 138.7241082 180.8772381 193.3333487 139.5334789 182.4357628
 192.6444599 142.4293217 181.1127677 191.3523039 141.7755211 182.1800313
 190.9524407 142.8471457 180.7802770 191.1419448 138.7720218 180.7127150
 189.6795256 139.8002270 180.7310774 190.8645857 139.9065068 182.0796063
 195.7239904 139.9664292 178.1019391 197.2081579 139.2103141 178.7467570
 195.8973253 140.2027113 180.6083684 195.8937374 138.4524533 180.7875830
 193.8266078 140.2045210 180.1500000 195.1020000 136.8480000 180.3220000
 191.6210000 142.4680000 189.1190000 192.0590000 142.1460000 187.8010000
 193.5756870 142.2790422 187.7330128 194.1818325 141.3784892 188.6572661
 190.6510000 142.3510000 189.0990000 191.5791500 142.8290745 187.0939185
 191.7504998 141.1178257 187.5879032 193.8917786 143.2919699 188.0040657
 193.9438866 142.0460970 186.7304997 193.7472520 141.5633657 189.5128065
 193.5530000 139.6840000 194.5420000 191.4990000 140.8310000 193.4260000
 191.6099214 142.0641885 194.3209740 190.7348707 139.7458749 194.1707234
 196.1148790 139.1535784 191.8897728 195.5482276 139.2730000 193.3150000
 194.1310000 139.2730000 193.3150000 194.2520000 138.3010000 193.3460000
 193.7271057 138.7241082 194.0422381 193.3333487 139.5334789 195.6007628
 192.6444599 142.4293217 194.2777677 191.3523039 141.7755211 195.3450313
 190.9524407 142.8471457 193.9452770 191.1419448 138.7720218 193.8777150
 189.6795256 139.8002270 193.8960774 190.8645857 139.9065068 195.2446063
 195.7239904 139.9664292 191.2669391 197.2081579 139.2103141 191.9117570
 195.8973253 140.2027113 193.7733684 195.8937374 138.4524533 193.9525830
 193.8266078 140.2045210 193.3150000 195.1020000 136.8480000 193.4870000
 191.6210000 142.4680000 202.2840000 192.0590000 142.1460000 200.9660000
 193.5756870 142.2790422 200.8980128 194.1818325 141.3784892 201.8222661
 190.6510000 142.3510000 202.2640000 191.5791500 142.8290745 200.2589185
 191.7504998 141.1178257 200.7529032 193.8917786 143.2919699 201.1690657
 193.9438866 142.0460970 199.8954997 193.7472520 141.5633657 202.6778065
 150.0000000 150.0000000 150.0000000  90.0000000  90.0000000  90.0000000
